 vasp.5.4.4.18Apr17-6-g9f103f2a35 (build Dec 02 2020 12:53:39) complex          
  
 executed on             LinuxIFC date 2022.06.17  22:15:11
 running on   64 total cores
 distrk:  each k-point on   64 cores,    1 groups
 distr:  one band on NCORES_PER_BAND=  16 cores,    4 groups


--------------------------------------------------------------------------------------------------------


 INCAR:
 POTCAR:    PAW_PBE In_d 06Sep2000                
 POTCAR:    PAW_PBE Ga_d 06Jul2010                
 POTCAR:    PAW_PBE O 08Apr2002                   
 POTCAR:    PAW_PBE In_d 06Sep2000                
   VRHFIN =In: s2p1                                                             
   LEXCH  = PE                                                                  
   EATOM  =  1576.8302 eV,  115.8937 Ry                                         
                                                                                
   TITEL  = PAW_PBE In_d 06Sep2000                                              
   LULTRA =        F    use ultrasoft PP ?                                      
   IUNSCR =        1    unscreen: 0-lin 1-nonlin 2-no                           
   RPACOR =    2.200    partial core radius                                     
   POMASS =  114.820; ZVAL   =   13.000    mass and valenz                      
   RCORE  =    2.500    outmost cutoff radius                                   
   RWIGS  =    3.170; RWIGS  =    1.677    wigner-seitz radius (au A)           
   ENMAX  =  239.211; ENMIN  =  179.409 eV                                      
   ICORE  =        3    local potential                                         
   LCOR   =        T    correct aug charges                                     
   LPAW   =        T    paw PP                                                  
   EAUG   =  449.704                                                            
   DEXC   =    0.000                                                            
   RMAX   =    2.552    core radius for proj-oper                               
   RAUG   =    1.300    factor for augmentation sphere                          
   RDEP   =    2.630    radius for radial grids                                 
   RDEPT  =    2.033    core radius for aug-charge                              
                                                                                
   Atomic configuration                                                         
   12 entries                                                                   
     n  l   j            E        occ.                                          
     1  0  0.50    -27747.9169   2.0000                                         
     2  0  0.50     -4154.4438   2.0000                                         
     2  1  1.50     -3728.4305   6.0000                                         
     3  0  0.50      -788.3680   2.0000                                         
     3  1  1.50      -648.9215   6.0000                                         
     3  2  2.50      -432.5893  10.0000                                         
     4  0  0.50      -119.6363   2.0000                                         
     4  1  1.50       -78.1086   6.0000                                         
     4  2  2.50       -18.6227  10.0000                                         
     5  0  0.50        -8.2107   2.0000                                         
     5  1  0.50        -2.5185   1.0000                                         
     4  3  2.50        -2.7212   0.0000                                         
   Description                                                                  
     l       E           TYP  RCUT    TYP  RCUT                                 
     2    -18.6226981     23  2.500                                             
     2     -1.3605826     23  2.500                                             
     0     -8.2107305     23  2.500                                             
     0     -6.1485975     23  2.500                                             
     1     -2.5184867     23  2.500                                             
     1      3.2427302     23  2.500                                             
     3     -1.3605826      7  2.500                                             
  local pseudopotential read in
  partial core-charges read in
  partial kinetic energy density read in
  atomic valenz-charges read in
  non local Contribution for L=           2  read in
    real space projection operators read in
  non local Contribution for L=           2  read in
    real space projection operators read in
  non local Contribution for L=           0  read in
    real space projection operators read in
  non local Contribution for L=           0  read in
    real space projection operators read in
  non local Contribution for L=           1  read in
    real space projection operators read in
  non local Contribution for L=           1  read in
    real space projection operators read in
    PAW grid and wavefunctions read in
 
   number of l-projection  operators is LMAX  =           6
   number of lm-projection operators is LMMAX =          18
 
 POTCAR:    PAW_PBE Ga_d 06Jul2010                
   VRHFIN =Ga: s2p1                                                             
   LEXCH  = PE                                                                  
   EATOM  =  2148.8298 eV,  157.9345 Ry                                         
                                                                                
   TITEL  = PAW_PBE Ga_d 06Jul2010                                              
   LULTRA =        F    use ultrasoft PP ?                                      
   IUNSCR =        1    unscreen: 0-lin 1-nonlin 2-no                           
   RPACOR =    1.700    partial core radius                                     
   POMASS =   69.723; ZVAL   =   13.000    mass and valenz                      
   RCORE  =    2.300    outmost cutoff radius                                   
   RWIGS  =    2.300; RWIGS  =    1.217    wigner-seitz radius (au A)           
   ENMAX  =  282.691; ENMIN  =  212.018 eV                                      
   ICORE  =        3    local potential                                         
   LCOR   =        T    correct aug charges                                     
   LPAW   =        T    paw PP                                                  
   EAUG   =  490.690                                                            
   DEXC   =    0.000                                                            
   RMAX   =    2.341    core radius for proj-oper                               
   RAUG   =    1.300    factor for augmentation sphere                          
   RDEP   =    2.413    radius for radial grids                                 
   RDEPT  =    1.856    core radius for aug-charge                              
                                                                                
   Atomic configuration                                                         
    9 entries                                                                   
     n  l   j            E        occ.                                          
     1  0  0.50    -10228.7831   2.0000                                         
     2  0  0.50     -1262.1604   2.0000                                         
     2  1  1.50     -1098.6333   6.0000                                         
     3  0  0.50      -148.1110   2.0000                                         
     3  1  1.50       -98.8436   6.0000                                         
     3  2  2.50       -19.1549  10.0000                                         
     4  0  0.50        -8.9483   2.0000                                         
     4  1  0.50        -2.5791   1.0000                                         
     4  3  2.50        -2.7416   0.0000                                         
   Description                                                                  
     l       E           TYP  RCUT    TYP  RCUT                                 
     2    -19.1549037     23  2.300                                             
     2     -5.4423304     23  2.300                                             
     0     -8.9483111     23  2.300                                             
     0     68.0291300     23  2.300                                             
     1     -2.5790802     23  2.100                                             
     1     81.6349560     23  2.300                                             
     3      6.8029130     23  2.300                                             
  local pseudopotential read in
  partial core-charges read in
  partial kinetic energy density read in
  atomic valenz-charges read in
  non local Contribution for L=           2  read in
    real space projection operators read in
  non local Contribution for L=           2  read in
    real space projection operators read in
  non local Contribution for L=           0  read in
    real space projection operators read in
  non local Contribution for L=           0  read in
    real space projection operators read in
  non local Contribution for L=           1  read in
    real space projection operators read in
  non local Contribution for L=           1  read in
    real space projection operators read in
    PAW grid and wavefunctions read in
 
   number of l-projection  operators is LMAX  =           6
   number of lm-projection operators is LMMAX =          18
 
 POTCAR:    PAW_PBE O 08Apr2002                   
   VRHFIN =O: s2p4                                                              
   LEXCH  = PE                                                                  
   EATOM  =   432.3788 eV,   31.7789 Ry                                         
                                                                                
   TITEL  = PAW_PBE O 08Apr2002                                                 
   LULTRA =        F    use ultrasoft PP ?                                      
   IUNSCR =        1    unscreen: 0-lin 1-nonlin 2-no                           
   RPACOR =    1.200    partial core radius                                     
   POMASS =   16.000; ZVAL   =    6.000    mass and valenz                      
   RCORE  =    1.520    outmost cutoff radius                                   
   RWIGS  =    1.550; RWIGS  =    0.820    wigner-seitz radius (au A)           
   ENMAX  =  400.000; ENMIN  =  300.000 eV                                      
   ICORE  =        2    local potential                                         
   LCOR   =        T    correct aug charges                                     
   LPAW   =        T    paw PP                                                  
   EAUG   =  605.392                                                            
   DEXC   =    0.000                                                            
   RMAX   =    1.553    core radius for proj-oper                               
   RAUG   =    1.300    factor for augmentation sphere                          
   RDEP   =    1.550    radius for radial grids                                 
   RDEPT  =    1.329    core radius for aug-charge                              
                                                                                
   Atomic configuration                                                         
    4 entries                                                                   
     n  l   j            E        occ.                                          
     1  0  0.50      -514.6923   2.0000                                         
     2  0  0.50       -23.9615   2.0000                                         
     2  1  0.50        -9.0305   4.0000                                         
     3  2  1.50        -9.5241   0.0000                                         
   Description                                                                  
     l       E           TYP  RCUT    TYP  RCUT                                 
     0    -23.9615318     23  1.200                                             
     0     -9.5240782     23  1.200                                             
     1     -9.0304911     23  1.520                                             
     1      8.1634956     23  1.520                                             
     2     -9.5240782      7  1.500                                             
  local pseudopotential read in
  partial core-charges read in
  partial kinetic energy density read in
  kinetic energy density of atom read in
  atomic valenz-charges read in
  non local Contribution for L=           0  read in
    real space projection operators read in
  non local Contribution for L=           0  read in
    real space projection operators read in
  non local Contribution for L=           1  read in
    real space projection operators read in
  non local Contribution for L=           1  read in
    real space projection operators read in
    PAW grid and wavefunctions read in
 
   number of l-projection  operators is LMAX  =           4
   number of lm-projection operators is LMMAX =           8
 
 Optimization of the real space projectors (new method)

 maximal supplied QI-value         = 15.12
 optimisation between [QCUT,QGAM] = [ 14.82, 29.78] = [ 61.47,248.38] Ry 
 Optimized for a Real-space Cutoff    1.35 Angstroem

   l    n(q)    QCUT    max X(q) W(low)/X(q) W(high)/X(q)  e(spline) 
   2     11    14.815     4.551    0.30E-04    0.55E-04    0.22E-06
   2     11    14.815     8.525    0.39E-04    0.28E-04    0.19E-06
   0     12    14.815   208.283    0.72E-04    0.66E-04    0.88E-06
   0     12    14.815   161.407    0.70E-04    0.65E-04    0.87E-06
   1     12    14.815   122.126    0.11E-03    0.73E-04    0.19E-05
   1     12    14.815    62.412    0.10E-03    0.70E-04    0.18E-05
 Optimization of the real space projectors (new method)

 maximal supplied QI-value         = 16.25
 optimisation between [QCUT,QGAM] = [ 14.79, 29.74] = [ 61.25,247.68] Ry 
 Optimized for a Real-space Cutoff    1.27 Angstroem

   l    n(q)    QCUT    max X(q) W(low)/X(q) W(high)/X(q)  e(spline) 
   2     10    14.789     7.143    0.12E-04    0.75E-04    0.21E-06
   2     10    14.789     5.586    0.34E-04    0.14E-03    0.34E-06
   0     11    14.789    12.382    0.20E-04    0.14E-04    0.24E-07
   0     11    14.789     6.622    0.27E-04    0.28E-04    0.55E-07
   1     11    14.789     7.935    0.21E-03    0.38E-03    0.12E-05
   1     11    14.789     2.425    0.18E-03    0.33E-03    0.10E-05
 Optimization of the real space projectors (new method)

 maximal supplied QI-value         = 24.76
 optimisation between [QCUT,QGAM] = [ 14.85, 29.71] = [ 61.78,247.12] Ry 
 Optimized for a Real-space Cutoff    0.98 Angstroem

   l    n(q)    QCUT    max X(q) W(low)/X(q) W(high)/X(q)  e(spline) 
   0      9    14.853    20.381    0.13E-03    0.12E-03    0.15E-06
   0      9    14.853    15.268    0.14E-03    0.13E-03    0.16E-06
   1      8    14.853     5.964    0.22E-03    0.38E-04    0.13E-06
   1      8    14.853     5.382    0.19E-03    0.38E-04    0.11E-06
  PAW_PBE In_d 06Sep2000                :
 energy of atom  1       EATOM=-1576.8302
 kinetic energy error for atom=    0.0003 (will be added to EATOM!!)
  PAW_PBE Ga_d 06Jul2010                :
 energy of atom  2       EATOM=-2148.8298
 kinetic energy error for atom=    0.0004 (will be added to EATOM!!)
  PAW_PBE O 08Apr2002                   :
 energy of atom  3       EATOM= -432.3788
 kinetic energy error for atom=    0.0031 (will be added to EATOM!!)
 
 
 POSCAR: In10 Ga14 O36                           
  positions in direct lattice
  No initial velocities read in
 exchange correlation table for  LEXCH =        8
   RHO(1)=    0.500       N(1)  =     2000
   RHO(2)=  100.500       N(2)  =     4000

 VTST: version 3.2, (02/03/18)

 CHAIN: initializing optimizer
 
 OPT: Using VASP Dynamics algorithm
 CHAIN: Read ICHAIN            0
 
 POSCAR: In10 Ga14 O36                           
  positions in direct lattice
  No initial velocities read in
 


--------------------------------------------------------------------------------------------------------


 ion  position               nearest neighbor table
   1  0.016  0.033  0.153-  34 2.15  44 2.19  48 2.21  25 2.21  29 2.26  39 2.30  21 3.24  19 3.38
                            21 3.41   8 3.88   7 3.93
   2  0.564  0.544  0.142-  26 2.15  30 2.19  40 2.19  33 2.20  47 2.20  43 2.32  19 3.13  21 3.16
                            19 3.25  20 3.47   8 3.70   8 3.70
   3  0.352  0.221  0.688-  35 2.01  37 2.06  27 2.07  32 2.08  14 3.30  14 3.33  15 3.41   5 3.47
                             9 3.52  10 3.60   9 3.61
   4  0.826  0.714  0.813-  54 2.13  36 2.15  28 2.20  31 2.20  50 2.22  57 2.28  15 3.18  15 3.20
                            10 3.24  10 3.26   9 3.35
   5  0.281  0.345  0.482-  55 2.12  52 2.18  45 2.22  59 2.22  37 2.25  41 2.26  12 3.15  12 3.21
                            24 3.22  11 3.47   3 3.47   7 3.55   7 3.78   8 4.00
   6  0.818  0.853  0.491-  51 2.14  42 2.19  38 2.20  46 2.21  56 2.26  60 2.34  24 3.24  24 3.26
                            11 3.30  12 3.36   7 3.95
   7  0.223  0.815  0.335-  59 2.09  25 2.09  55 2.10  51 2.18  30 2.65  19 3.37  11 3.38  21 3.45
                            11 3.47   5 3.55   8 3.71   5 3.78   1 3.93   6 3.95
   8  0.610  0.047  0.296-  30 2.07  26 2.10  56 2.10  34 2.18  59 2.52  12 3.25  20 3.31  20 3.37
                            24 3.44   2 3.70   2 3.70   7 3.71   1 3.88   5 4.00
   9  0.186  0.715  0.824-  35 2.13  32 2.14  53 2.15  49 2.15  31 2.27  57 2.27  15 3.21  15 3.23
                             4 3.35  16 3.41  17 3.44   3 3.52   3 3.61
  10  0.634  0.214  0.816-  27 2.13  54 2.15  36 2.15  58 2.17  28 2.27  50 2.32   4 3.24   4 3.26
                            15 3.40  16 3.47   3 3.60
  11  0.993  0.308  0.372-  51 1.83  55 1.84  29 1.94  60 1.94  20 2.75   6 3.30   7 3.38   5 3.47
                             7 3.47
  12  0.453  0.838  0.491-  52 1.94  41 1.99  59 2.01  37 2.04  46 2.13  56 2.14   5 3.15   5 3.21
                             8 3.25   6 3.36
  13  0.911  0.349  0.617-  42 1.87  38 1.89  45 1.90  28 1.91
  14  0.556  0.716  0.688-  36 1.84  27 1.86  32 1.86  46 1.91   3 3.30   3 3.33
  15  0.002  0.215  0.822-  35 1.92  53 1.99  50 2.06  57 2.06  31 2.10  28 2.13   4 3.18   4 3.20
                             9 3.21   9 3.23  10 3.40   3 3.41
  16  0.460  0.709  0.940-  54 1.82  43 1.87  58 1.88  49 1.88   9 3.41  10 3.47
  17  0.270  0.205  0.945-  53 1.85  58 1.87  49 1.88  39 1.89   9 3.44
  18  0.933  0.540  0.022-  48 1.85  40 1.88  44 1.88  57 1.89
  19  0.388  0.057  0.137-  33 1.95  47 1.97  30 1.98  43 2.09  25 2.13  39 2.16   2 3.13   2 3.25
                             7 3.37   1 3.38
  20  0.825  0.551  0.273-  34 1.83  26 1.84  29 1.90  60 1.96  11 2.75   8 3.31   8 3.37   2 3.47

  21  0.226  0.549  0.131-  33 1.93  48 1.94  43 2.02  25 2.03  39 2.05   2 3.16   1 3.24   1 3.41
                             7 3.45
  22  0.753  0.048  0.018-  47 1.84  40 1.88  44 1.88  50 1.92
  23  0.093  0.849  0.617-  41 1.85  38 1.88  45 1.89  31 1.93
  24  0.628  0.353  0.489-  52 1.96  56 2.02  42 2.02  37 2.07  46 2.11  60 2.12   5 3.22   6 3.24
                             6 3.26   8 3.44
  25  0.196  0.861  0.205-  21 2.03   7 2.09  19 2.13   1 2.21
  26  0.671  0.391  0.240-  20 1.84   8 2.10   2 2.15
  27  0.531  0.393  0.723-  14 1.86   3 2.07  10 2.13
  28  0.860  0.359  0.743-  13 1.91  15 2.13   4 2.20  10 2.27
  29  0.001  0.355  0.246-  20 1.90  11 1.94   1 2.26
  30  0.482  0.872  0.220-  19 1.98   8 2.07   2 2.19   7 2.65
  31  0.034  0.894  0.745-  23 1.93  15 2.10   4 2.20   9 2.27
  32  0.369  0.861  0.727-  14 1.86   3 2.08   9 2.14
  33  0.346  0.375  0.197-  21 1.93  19 1.95   2 2.20
  34  0.826  0.872  0.241-  20 1.83   1 2.15   8 2.18
  35  0.163  0.395  0.749-  15 1.92   3 2.01   9 2.13
  36  0.691  0.890  0.735-  14 1.84   4 2.15  10 2.15
  37  0.439  0.169  0.555-  12 2.04   3 2.06  24 2.07   5 2.25
  38  0.937  0.681  0.583-  23 1.88  13 1.89   6 2.20
  39  0.227  0.214  0.071-  17 1.89  21 2.05  19 2.16   1 2.30
  40  0.756  0.722  0.056-  18 1.88  22 1.88   2 2.19
  41  0.269  0.691  0.564-  23 1.85  12 1.99   5 2.26
  42  0.785  0.221  0.549-  13 1.87  24 2.02   6 2.19
  43  0.407  0.730  0.064-  16 1.87  21 2.02  19 2.09   2 2.32
  44  0.901  0.216  0.061-  18 1.88  22 1.88   1 2.19
  45  0.096  0.180  0.582-  23 1.89  13 1.90   5 2.22
  46  0.606  0.686  0.561-  14 1.91  24 2.11  12 2.13   6 2.21
  47  0.573  0.199  0.066-  22 1.84  19 1.97   2 2.20
  48  0.068  0.681  0.080-  18 1.85  21 1.94   1 2.21
  49  0.305  0.531  0.909-  16 1.88  17 1.88   9 2.15
  50  0.807  0.060  0.891-  22 1.92  15 2.06   4 2.22  10 2.32
  51  0.008  0.982  0.395-  11 1.83   6 2.14   7 2.18
  52  0.492  0.527  0.428-  12 1.94  24 1.96   5 2.18
  53  0.129  0.056  0.894-  17 1.85  15 1.99   9 2.15
  54  0.633  0.546  0.892-  16 1.82   4 2.13  10 2.15
  55  0.148  0.484  0.398-  11 1.84   7 2.10   5 2.12
  56  0.650  0.028  0.424-  24 2.02   8 2.10  12 2.14   6 2.26
  57  0.971  0.534  0.896-  18 1.89  15 2.06   9 2.27   4 2.28
  58  0.449  0.034  0.903-  17 1.87  16 1.88  10 2.17
  59  0.359  0.009  0.402-  12 2.01   7 2.09   5 2.22   8 2.52
  60  0.814  0.509  0.400-  11 1.94  20 1.96  24 2.12   6 2.34
 
  LATTYP: Found a triclinic cell.
 ALAT       =    16.0753790589
 B/A-ratio  =     0.5727074905
 C/A-ratio  =     0.3399732969
 COS(alpha) =     0.0048627684
 COS(beta)  =     0.0094135894
 COS(gamma) =     0.3544349392
  
  Lattice vectors:
  
 A1 = (  -5.6976760000,  -0.1236220000,  15.0312680000)
 A2 = (  -9.2064900000,   0.0000000000,   0.0000000000)
 A3 = (  -0.0265760000,  -5.4651350000,   0.0000000000)


Analysis of symmetry for initial positions (statically):
=====================================================================
 Subroutine PRICEL returns:
 Original cell was already a primitive cell.
 

 Routine SETGRP: Setting up the symmetry group for a 
 triclinic supercell.


 Subroutine GETGRP returns: Found  1 space group operations
 (whereof  1 operations were pure point group operations)
 out of a pool of  2 trial point group operations.


The static configuration has the point symmetry C_1 .


Analysis of symmetry for dynamics (positions and initial velocities):
=====================================================================
 Subroutine PRICEL returns:
 Original cell was already a primitive cell.
 

 Routine SETGRP: Setting up the symmetry group for a 
 triclinic supercell.


 Subroutine GETGRP returns: Found  1 space group operations
 (whereof  1 operations were pure point group operations)
 out of a pool of  2 trial point group operations.


The dynamic configuration has the point symmetry C_1 .


 Subroutine INISYM returns: Found  1 space group operations
 (whereof  1 operations are pure point group operations),
 and found     1 'primitive' translations

 
 
 KPOINTS: pymatgen with grid density = 1259 / numb

Automatic generation of k-mesh.
Space group operators:
 irot       det(A)        alpha          n_x          n_y          n_z        tau_x        tau_y        tau_z
    1     1.000000     0.000000     1.000000     0.000000     0.000000     0.000000     0.000000     0.000000
 
 Subroutine IBZKPT returns following result:
 ===========================================
 
 Found      6 irreducible k-points:
 
 Following reciprocal coordinates:
            Coordinates               Weight
  0.000000  0.000000  0.000000      1.000000
  0.500000  0.000000 -0.000000      1.000000
  0.000000  0.250000  0.000000      2.000000
  0.500000  0.250000 -0.000000      2.000000
  0.000000  0.500000  0.000000      1.000000
  0.500000  0.500000  0.000000      1.000000
 
 Following cartesian coordinates:
            Coordinates               Weight
  0.000000  0.000000  0.000000      1.000000
  0.054310 -0.000264 -0.012680      1.000000
  0.000000  0.045745  0.000376      2.000000
  0.054310  0.045480 -0.012304      2.000000
  0.000000  0.091489  0.000752      1.000000
  0.054310  0.091225 -0.011927      1.000000
 


--------------------------------------------------------------------------------------------------------




 Dimension of arrays:
   k-points           NKPTS =      6   k-points in BZ     NKDIM =      6   number of bands    NBANDS=    316
   number of dos      NEDOS =    301   number of ions     NIONS =     60
   non local maximal  LDIM  =      6   non local SUM 2l+1 LMDIM =     18
   total plane-waves  NPLWV = 729000
   max r-space proj   IRMAX =   9989   max aug-charges    IRDMAX=  41830
   dimension x,y,z NGX =    90 NGY =   54 NGZ =  150
   dimension x,y,z NGXF=   180 NGYF=  108 NGZF=  300
   support grid    NGXF=   180 NGYF=  108 NGZF=  300
   ions per type =              10  14  36
   NGX,Y,Z   is equivalent  to a cutoff of  16.25, 16.43, 16.16 a.u.
   NGXF,Y,Z  is equivalent  to a cutoff of  32.50, 32.85, 32.31 a.u.

 SYSTEM =  unknown system                          
 POSCAR =  In10 Ga14 O36                           

 Startparameter for this run:
   NWRITE =      2    write-flag & timer
   PREC   = accura    normal or accurate (medium, high low for compatibility)
   ISTART =      0    job   : 0-new  1-cont  2-samecut
   ICHARG =      2    charge: 1-file 2-atom 10-const
   ISPIN  =      1    spin polarized calculation?
   LNONCOLLINEAR =      F non collinear calculations
   LSORBIT =      F    spin-orbit coupling
   INIWAV =      1    electr: 0-lowe 1-rand  2-diag
   LASPH  =      F    aspherical Exc in radial PAW
   METAGGA=      F    non-selfconsistent MetaGGA calc.

 Electronic Relaxation 1
   ENCUT  =  850.0 eV  62.47 Ry    7.90 a.u.  21.89 12.99 36.69*2*pi/ulx,y,z
   ENINI  =  850.0     initial cutoff
   ENAUG  =  605.4 eV  augmentation charge cutoff
   NELM   =    100;   NELMIN=  5; NELMDL= -6     # of ELM steps 
   EDIFF  = 0.1E-05   stopping-criterion for ELM
   LREAL  =      T    real-space projection
   NLSPLINE    = F    spline interpolate recip. space projectors
   LCOMPAT=      F    compatible to vasp.4.4
   GGA_COMPAT  = T    GGA compatible to vasp.4.4-vasp.4.6
   LMAXPAW     = -100 max onsite density
   LMAXMIX     =    4 max onsite mixed and CHGCAR
   VOSKOWN=      0    Vosko Wilk Nusair interpolation
   ROPT   =   -0.00025  -0.00025  -0.00025
 Ionic relaxation
   EDIFFG = 0.1E-04   stopping-criterion for IOM
   NSW    =      0    number of steps for IOM
   NBLOCK =      1;   KBLOCK =      1    inner block; outer block 
   IBRION =     -1    ionic relax: 0-MD 1-quasi-New 2-CG
   NFREE  =      0    steps in history (QN), initial steepest desc. (CG)
   ISIF   =      2    stress and relaxation
   IWAVPR =     10    prediction:  0-non 1-charg 2-wave 3-comb
   ISYM   =      2    0-nonsym 1-usesym 2-fastsym
   LCORR  =      T    Harris-Foulkes like correction to forces

   POTIM  = 0.5000    time-step for ionic-motion
   TEIN   =    0.0    initial temperature
   TEBEG  =    0.0;   TEEND  =   0.0 temperature during run
   SMASS  =  -3.00    Nose mass-parameter (am)
   estimated Nose-frequenzy (Omega)   =  0.10E-29 period in steps =****** mass=  -0.194E-26a.u.
   SCALEE = 1.0000    scale energy and forces
   NPACO  =    256;   APACO  = 16.0  distance and # of slots for P.C.
   PSTRESS=    0.0 pullay stress

  Mass of Ions in am
   POMASS = 114.82 69.72 16.00
  Ionic Valenz
   ZVAL   =  13.00 13.00  6.00
  Atomic Wigner-Seitz radii
   RWIGS  =  -1.00 -1.00 -1.00
  virtual crystal weights 
   VCA    =   1.00  1.00  1.00
   NELECT =     528.0000    total number of electrons
   NUPDOWN=      -1.0000    fix difference up-down

 DOS related values:
   EMIN   =  10.00;   EMAX   =-10.00  energy-range for DOS
   EFERMI =   0.00
   ISMEAR =     0;   SIGMA  =   0.05  broadening in eV -4-tet -1-fermi 0-gaus

 Electronic relaxation 2 (details)
   IALGO  =     38    algorithm
   LDIAG  =      T    sub-space diagonalisation (order eigenvalues)
   LSUBROT=      F    optimize rotation matrix (better conditioning)
   TURBO    =      0    0=normal 1=particle mesh
   IRESTART =      0    0=no restart 2=restart with 2 vectors
   NREBOOT  =      0    no. of reboots
   NMIN     =      0    reboot dimension
   EREF     =   0.00    reference energy to select bands
   IMIX   =      4    mixing-type and parameters
     AMIX     =   0.40;   BMIX     =  1.00
     AMIX_MAG =   1.60;   BMIX_MAG =  1.00
     AMIN     =   0.10
     WC   =   100.;   INIMIX=   1;  MIXPRE=   1;  MAXMIX= -45

 Intra band minimization:
   WEIMIN = 0.0000     energy-eigenvalue tresh-hold
   EBREAK =  0.79E-09  absolut break condition
   DEPER  =   0.30     relativ break condition  

   TIME   =   0.40     timestep for ELM

  volume/ion in A,a.u.               =      12.60        85.06
  Fermi-wavevector in a.u.,A,eV,Ry     =   1.452299  2.744447 28.697019  2.109171
  Thomas-Fermi vector in A             =   2.569697
 
 Write flags
   LWAVE        =      F    write WAVECAR
   LDOWNSAMPLE  =      F    k-point downsampling of WAVECAR
   LCHARG       =      F    write CHGCAR
   LVTOT        =      F    write LOCPOT, total local potential
   LVHAR        =      F    write LOCPOT, Hartree potential only
   LELF         =      F    write electronic localiz. function (ELF)
   LORBIT       =      0    0 simple, 1 ext, 2 COOP (PROOUT), +10 PAW based schemes


 Dipole corrections
   LMONO  =      F    monopole corrections only (constant potential shift)
   LDIPOL =      F    correct potential (dipole corrections)
   IDIPOL =      0    1-x, 2-y, 3-z, 4-all directions 
   EPSILON=  1.0000000 bulk dielectric constant

 Exchange correlation treatment:
   GGA     =    --    GGA type
   LEXCH   =     8    internal setting for exchange type
   VOSKOWN=      0    Vosko Wilk Nusair interpolation
   LHFCALC =     F    Hartree Fock is set to
   LHFONE  =     F    Hartree Fock one center treatment
   AEXX    =    0.0000 exact exchange contribution

 Linear response parameters
   LEPSILON=     F    determine dielectric tensor
   LRPA    =     F    only Hartree local field effects (RPA)
   LNABLA  =     F    use nabla operator in PAW spheres
   LVEL    =     F    velocity operator in full k-point grid
   LINTERFAST=   F  fast interpolation
   KINTER  =     0    interpolate to denser k-point grid
   CSHIFT  =0.1000    complex shift for real part using Kramers Kronig
   OMEGAMAX=  -1.0    maximum frequency
   DEG_THRESHOLD= 0.2000000E-02 threshold for treating states as degnerate
   RTIME   =   -0.100 relaxation time in fs
  (WPLASMAI=    0.000 imaginary part of plasma frequency in eV, 0.658/RTIME)
   DFIELD  = 0.0000000 0.0000000 0.0000000 field for delta impulse in time
 
 Orbital magnetization related:
   ORBITALMAG=     F  switch on orbital magnetization
   LCHIMAG   =     F  perturbation theory with respect to B field
   DQ        =  0.001000  dq finite difference perturbation B field
   LLRAUG    =     F  two centre corrections for induced B field



--------------------------------------------------------------------------------------------------------


 Static calculation
 charge density and potential will be updated during run
 non-spin polarized calculation
 Variant of blocked Davidson
 Davidson routine will perform the subspace rotation
 perform sub-space diagonalisation
    after iterative eigenvector-optimisation
 modified Broyden-mixing scheme, WC =      100.0
 initial mixing is a Kerker type mixing with AMIX =  0.4000 and BMIX =      1.0000
 Hartree-type preconditioning will be used
 using additional bands           52
 real space projection scheme for non local part
 use partial core corrections
 calculate Harris-corrections to forces 
   (improved forces if not selfconsistent)
 use gradient corrections 
 use of overlap-Matrix (Vanderbilt PP)
 Gauss-broadening in eV      SIGMA  =   0.05


--------------------------------------------------------------------------------------------------------


  energy-cutoff  :      850.00
  volume of cell :      756.29
      direct lattice vectors                 reciprocal lattice vectors
     9.206490000  0.000000000  0.000000000     0.108619029 -0.000528195 -0.025359754
     0.026576000  5.465135000  0.000000000     0.000000000  0.182978097  0.001504871
     3.508814000 -0.123622000 15.031268000     0.000000000  0.000000000  0.066527987

  length of vectors
     9.206490000  5.465199617 15.435869777     0.111541425  0.182984285  0.066527987


 
 k-points in units of 2pi/SCALE and weight: pymatgen with grid density = 1259 / numb
   0.00000000  0.00000000  0.00000000       0.125
   0.05430951 -0.00026410 -0.01267988       0.125
   0.00000000  0.04574452  0.00037622       0.250
   0.05430951  0.04548043 -0.01230366       0.250
   0.00000000  0.09148905  0.00075244       0.125
   0.05430951  0.09122495 -0.01192744       0.125
 
 k-points in reciprocal lattice and weights: pymatgen with grid density = 1259 / numb
   0.00000000  0.00000000  0.00000000       0.125
   0.50000000  0.00000000 -0.00000000       0.125
   0.00000000  0.25000000  0.00000000       0.250
   0.50000000  0.25000000 -0.00000000       0.250
   0.00000000  0.50000000  0.00000000       0.125
   0.50000000  0.50000000  0.00000000       0.125
 
 position of ions in fractional coordinates (direct lattice) 
   0.01571700  0.03255000  0.15254400
   0.56399600  0.54359100  0.14237800
   0.35194600  0.22134300  0.68844100
   0.82622600  0.71422700  0.81324200
   0.28113400  0.34497700  0.48171300
   0.81832900  0.85347100  0.49068700
   0.22309600  0.81509400  0.33500000
   0.61025800  0.04677500  0.29560800
   0.18615200  0.71545500  0.82374100
   0.63449300  0.21415900  0.81600800
   0.99287000  0.30771300  0.37157500
   0.45323700  0.83801600  0.49116400
   0.91117400  0.34911700  0.61669400
   0.55585600  0.71636200  0.68763200
   0.00174700  0.21519700  0.82213200
   0.45995000  0.70900800  0.94002200
   0.26955900  0.20490500  0.94510800
   0.93346900  0.54016000  0.02209800
   0.38789100  0.05748700  0.13729600
   0.82490200  0.55141400  0.27275300
   0.22567300  0.54922000  0.13124800
   0.75336500  0.04845900  0.01842800
   0.09324400  0.84928200  0.61745000
   0.62758400  0.35278600  0.48861300
   0.19618500  0.86141200  0.20500400
   0.67103700  0.39061100  0.23978200
   0.53098400  0.39275000  0.72346300
   0.85963500  0.35878300  0.74348600
   0.00083800  0.35510800  0.24616500
   0.48177200  0.87240200  0.22014500
   0.03421400  0.89418400  0.74490900
   0.36861800  0.86064000  0.72668200
   0.34646600  0.37455100  0.19737600
   0.82565400  0.87249600  0.24078600
   0.16252100  0.39477700  0.74934500
   0.69071900  0.88973300  0.73521800
   0.43926800  0.16921100  0.55451600
   0.93685800  0.68139300  0.58344500
   0.22686200  0.21410400  0.07064500
   0.75575000  0.72160800  0.05557300
   0.26875900  0.69126400  0.56373900
   0.78500300  0.22116700  0.54879400
   0.40721000  0.73046600  0.06418500
   0.90097600  0.21589800  0.06148300
   0.09619700  0.17971300  0.58173500
   0.60638800  0.68557800  0.56124400
   0.57312500  0.19933900  0.06621900
   0.06790900  0.68090500  0.08039200
   0.30511100  0.53078000  0.90926200
   0.80672400  0.06038800  0.89114300
   0.00806200  0.98224100  0.39548400
   0.49236700  0.52725400  0.42814100
   0.12874300  0.05598400  0.89401700
   0.63303200  0.54596500  0.89150900
   0.14753600  0.48445800  0.39792800
   0.64981800  0.02755600  0.42425600
   0.97129100  0.53448900  0.89637800
   0.44892500  0.03363300  0.90337200
   0.35943700  0.00910800  0.40224700
   0.81411800  0.50928600  0.40036400
 
 position of ions in cartesian coordinates  (Angst):
   0.68081197  0.15903235  2.29292975
   5.70644793  2.95319715  2.14012188
   5.66168116  1.12456292 10.34814117
  10.47913762  3.80281237 12.22405845
   4.28766679  1.82579555  7.24075720
   9.27834902  4.60367453  7.37564780
   3.25104572  4.41318538  5.03547478
   6.65681076  0.21908804  4.44336307
   4.62317441  3.80822565 12.38187173
   8.71036524  1.06953131 12.26563494
  10.45281307  1.63575824  5.58524341
   5.91839614  4.51915190  7.38281772
  10.56185699  1.83173459  9.26969279
   7.54929353  3.83000860 10.33598088
   2.90651108  1.07444705 12.35768642
   7.55173003  3.75861704 14.12972261
   5.80334598  1.00299735 14.20617164
   8.68586608  2.94931552  0.33216096
   4.05438851  0.29720141  2.06373297
   8.56614594  2.97983368  4.09982344
   2.55277711  2.98533630  1.97282386
   7.00179561  0.26255687  0.27699621
   3.04753768  4.56511038  9.28105643
   7.50167360  1.86761980  7.34447295
   2.54838903  4.68238987  3.08147007
   7.02962675  2.10509952  3.60422750
   7.43743371  2.05699583 10.87456624
  10.53251013  1.86888630 11.17553732
   0.88089959  1.91028175  3.70017209
   5.23106191  4.74057994  3.30905849
   2.95250181  4.79474913 11.19692681
   5.96634227  4.61367990 10.92295189
   3.89224550  2.02257176  2.96681155
   8.46943604  4.73854198  3.61931890
   4.13605178  2.06487407 11.26360552
   8.96248632  4.77162184 11.05125880
   5.99430690  0.85621058  8.33507861
  10.69048249  3.65177810  8.76991816
   2.34217293  1.16137399  1.06188393
   7.17197759  3.93681509  0.83533266
   4.47075337  3.70816054  8.47371199
   9.15861607  1.14086450  8.24906969
   3.99360088  3.98416062  0.96478194
   8.51629665  1.17231106  0.92416745
   2.93161268  0.91024056  8.74421469
   7.57022578  3.67739422  8.43620898
   5.51411737  1.08122842  0.99535554
   0.92537984  3.71129953  1.20839370
   6.01353861  2.78837957 13.66736080
  10.55555634  0.21986369 13.39500926
   1.48800656  5.31918914  5.94462599
   6.04925130  2.82858664  6.43550211
   4.32369834  0.19543995 13.43820912
   8.97065160  2.87356230 13.40051070
   2.76741900  2.59843572  5.98136241
   7.47191064  0.09814988  6.37710564
  12.10160913  2.81024250 13.47369795
   7.30368167  0.07213223 13.57882664
   4.72080511  0.00004987  6.04628246
   8.91350682  2.73382295  6.01797858
 


--------------------------------------------------------------------------------------------------------


 k-point  1 :   0.0000 0.0000 0.0000  plane waves:   42495
 k-point  2 :   0.5000 0.0000-0.0000  plane waves:   42494
 k-point  3 :   0.0000 0.2500 0.0000  plane waves:   42555
 k-point  4 :   0.5000 0.2500-0.0000  plane waves:   42553
 k-point  5 :   0.0000 0.5000 0.0000  plane waves:   42554
 k-point  6 :   0.5000 0.5000 0.0000  plane waves:   42590

 maximum and minimum number of plane-waves per node :      2707     2605

 maximum number of plane-waves:     42590
 maximum index in each direction: 
   IXMAX=   21   IYMAX=   12   IZMAX=   36
   IXMIN=  -22   IYMIN=  -13   IZMIN=  -36


 real space projection operators:
  total allocation   :      37647.69 KBytes
  max/ min on nodes  :       2576.86       2050.89


 parallel 3D FFT for wavefunctions:
    minimum data exchange during FFTs selected (reduces bandwidth)
 parallel 3D FFT for charge:
    minimum data exchange during FFTs selected (reduces bandwidth)


 total amount of memory used by VASP MPI-rank0    76889. kBytes
=======================================================================

   base      :      30000. kBytes
   nonlr-proj:      13358. kBytes
   fftplans  :       4701. kBytes
   grid      :       8201. kBytes
   one-center:         62. kBytes
   wavefun   :      20567. kBytes
 
     INWAV:  cpu time    0.0000: real time    0.0000
 Broyden mixing: mesh for mixing (old mesh)
   NGX = 43   NGY = 25   NGZ = 73
  (NGX  =180   NGY  =108   NGZ  =300)
  gives a total of  78475 points

 initial charge density was supplied:
 charge density of overlapping atoms calculated
 number of electron     528.0000000 magnetization 
 keeping initial charge density in first step


--------------------------------------------------------------------------------------------------------


 Maximum index for non-local projection operator          803
 Maximum index for augmentation-charges         1404 (set IRDMAX)


--------------------------------------------------------------------------------------------------------


 First call to EWALD:  gamma=   0.195
 Maximum number of real-space cells 3x 4x 2
 Maximum number of reciprocal cells 3x 2x 4

    FEWALD:  cpu time    0.0064: real time    0.0064


--------------------------------------- Iteration      1(   1)  ---------------------------------------


    POTLOK:  cpu time    0.0589: real time    0.0599
    SETDIJ:  cpu time    0.0091: real time    0.0093
     EDDAV:  cpu time    6.7282: real time    6.7838
       DOS:  cpu time    0.0011: real time    0.0011
    --------------------------------------------
      LOOP:  cpu time    6.7974: real time    6.8541

 eigenvalue-minimisations  :  3840
 total energy-change (2. order) : 0.1341353E+05  (-0.2573038E+05)
 number of electron     528.0000000 magnetization 
 augmentation part      528.0000000 magnetization 

 Free energy of the ion-electron system (eV)
  ---------------------------------------------------
  alpha Z        PSCENC =      2090.23889475
  Ewald energy   TEWEN  =    -41236.22526595
  -Hartree energ DENC   =    -16867.54527676
  -exchange      EXHF   =         0.00000000
  -V(xc)+E(xc)   XCENC  =      2039.47746891
  PAW double counting   =     48729.36354805   -53370.78588099
  entropy T*S    EENTRO =        -0.00027792
  eigenvalues    EBANDS =     10611.56704411
  atomic energy  EATOM  =     61417.43592829
  Solvation  Ediel_sol  =         0.00000000
  ---------------------------------------------------
  free energy    TOTEN  =     13413.52618249 eV

  energy without entropy =    13413.52646042  energy(sigma->0) =    13413.52632145


--------------------------------------------------------------------------------------------------------




--------------------------------------- Iteration      1(   2)  ---------------------------------------


     EDDAV:  cpu time    6.5370: real time    6.5489
       DOS:  cpu time    0.0011: real time    0.0011
    --------------------------------------------
      LOOP:  cpu time    6.5381: real time    6.5500

 eigenvalue-minimisations  :  3792
 total energy-change (2. order) :-0.9931259E+04  (-0.9230836E+04)
 number of electron     528.0000000 magnetization 
 augmentation part      528.0000000 magnetization 

 Free energy of the ion-electron system (eV)
  ---------------------------------------------------
  alpha Z        PSCENC =      2090.23889475
  Ewald energy   TEWEN  =    -41236.22526595
  -Hartree energ DENC   =    -16867.54527676
  -exchange      EXHF   =         0.00000000
  -V(xc)+E(xc)   XCENC  =      2039.47746891
  PAW double counting   =     48729.36354805   -53370.78588099
  entropy T*S    EENTRO =        -0.01078342
  eigenvalues    EBANDS =       680.31844934
  atomic energy  EATOM  =     61417.43592829
  Solvation  Ediel_sol  =         0.00000000
  ---------------------------------------------------
  free energy    TOTEN  =      3482.26708224 eV

  energy without entropy =     3482.27786565  energy(sigma->0) =     3482.27247394


--------------------------------------------------------------------------------------------------------




--------------------------------------- Iteration      1(   3)  ---------------------------------------


     EDDAV:  cpu time    7.5834: real time    7.5983
       DOS:  cpu time    0.0006: real time    0.0006
    --------------------------------------------
      LOOP:  cpu time    7.5839: real time    7.5988

 eigenvalue-minimisations  :  4568
 total energy-change (2. order) :-0.3240271E+04  (-0.3037321E+04)
 number of electron     528.0000000 magnetization 
 augmentation part      528.0000000 magnetization 

 Free energy of the ion-electron system (eV)
  ---------------------------------------------------
  alpha Z        PSCENC =      2090.23889475
  Ewald energy   TEWEN  =    -41236.22526595
  -Hartree energ DENC   =    -16867.54527676
  -exchange      EXHF   =         0.00000000
  -V(xc)+E(xc)   XCENC  =      2039.47746891
  PAW double counting   =     48729.36354805   -53370.78588099
  entropy T*S    EENTRO =        -0.00000000
  eigenvalues    EBANDS =     -2559.96296443
  atomic energy  EATOM  =     61417.43592829
  Solvation  Ediel_sol  =         0.00000000
  ---------------------------------------------------
  free energy    TOTEN  =       241.99645188 eV

  energy without entropy =      241.99645188  energy(sigma->0) =      241.99645188


--------------------------------------------------------------------------------------------------------




--------------------------------------- Iteration      1(   4)  ---------------------------------------


     EDDAV:  cpu time    7.4958: real time    7.5091
       DOS:  cpu time    0.0007: real time    0.0007
    --------------------------------------------
      LOOP:  cpu time    7.4965: real time    7.5098

 eigenvalue-minimisations  :  4472
 total energy-change (2. order) :-0.5867680E+03  (-0.5674518E+03)
 number of electron     528.0000000 magnetization 
 augmentation part      528.0000000 magnetization 

 Free energy of the ion-electron system (eV)
  ---------------------------------------------------
  alpha Z        PSCENC =      2090.23889475
  Ewald energy   TEWEN  =    -41236.22526595
  -Hartree energ DENC   =    -16867.54527676
  -exchange      EXHF   =         0.00000000
  -V(xc)+E(xc)   XCENC  =      2039.47746891
  PAW double counting   =     48729.36354805   -53370.78588099
  entropy T*S    EENTRO =        -0.00000000
  eigenvalues    EBANDS =     -3146.73095117
  atomic energy  EATOM  =     61417.43592829
  Solvation  Ediel_sol  =         0.00000000
  ---------------------------------------------------
  free energy    TOTEN  =      -344.77153487 eV

  energy without entropy =     -344.77153487  energy(sigma->0) =     -344.77153487


--------------------------------------------------------------------------------------------------------




--------------------------------------- Iteration      1(   5)  ---------------------------------------


     EDDAV:  cpu time    9.1652: real time    9.2104
       DOS:  cpu time    0.0006: real time    0.0006
    --------------------------------------------
      LOOP:  cpu time    9.1658: real time    9.2110

 eigenvalue-minimisations  :  5760
 total energy-change (2. order) :-0.5851382E+02  (-0.5735178E+02)
 number of electron     528.0000000 magnetization 
 augmentation part      528.0000000 magnetization 

 Free energy of the ion-electron system (eV)
  ---------------------------------------------------
  alpha Z        PSCENC =      2090.23889475
  Ewald energy   TEWEN  =    -41236.22526595
  -Hartree energ DENC   =    -16867.54527676
  -exchange      EXHF   =         0.00000000
  -V(xc)+E(xc)   XCENC  =      2039.47746891
  PAW double counting   =     48729.36354805   -53370.78588099
  entropy T*S    EENTRO =        -0.00000000
  eigenvalues    EBANDS =     -3205.24477176
  atomic energy  EATOM  =     61417.43592829
  Solvation  Ediel_sol  =         0.00000000
  ---------------------------------------------------
  free energy    TOTEN  =      -403.28535545 eV

  energy without entropy =     -403.28535545  energy(sigma->0) =     -403.28535545


--------------------------------------------------------------------------------------------------------




--------------------------------------- Iteration      1(   6)  ---------------------------------------


     EDDAV:  cpu time    8.4004: real time    8.4176
       DOS:  cpu time    0.0006: real time    0.0006
    CHARGE:  cpu time    0.2173: real time    0.2178
    MIXING:  cpu time    0.0019: real time    0.0023
    --------------------------------------------
      LOOP:  cpu time    8.6202: real time    8.6384

 eigenvalue-minimisations  :  5224
 total energy-change (2. order) :-0.2156591E+01  (-0.2135298E+01)
 number of electron     528.0000017 magnetization 
 augmentation part      221.0314643 magnetization 

 Broyden mixing:
  rms(total) = 0.48932E+01    rms(broyden)= 0.48932E+01
  rms(prec ) = 0.56056E+01
  weight for this iteration     100.00

 Free energy of the ion-electron system (eV)
  ---------------------------------------------------
  alpha Z        PSCENC =      2090.23889475
  Ewald energy   TEWEN  =    -41236.22526595
  -Hartree energ DENC   =    -16867.54527676
  -exchange      EXHF   =         0.00000000
  -V(xc)+E(xc)   XCENC  =      2039.47746891
  PAW double counting   =     48729.36354805   -53370.78588099
  entropy T*S    EENTRO =        -0.00000000
  eigenvalues    EBANDS =     -3207.40136242
  atomic energy  EATOM  =     61417.43592829
  Solvation  Ediel_sol  =         0.00000000
  ---------------------------------------------------
  free energy    TOTEN  =      -405.44194611 eV

  energy without entropy =     -405.44194611  energy(sigma->0) =     -405.44194611


--------------------------------------------------------------------------------------------------------




--------------------------------------- Iteration      1(   7)  ---------------------------------------


    POTLOK:  cpu time    0.0552: real time    0.0554
    SETDIJ:  cpu time    0.0078: real time    0.0078
     EDDAV:  cpu time   10.8749: real time   10.8967
       DOS:  cpu time    0.0007: real time    0.0007
    CHARGE:  cpu time    0.2168: real time    0.2172
    MIXING:  cpu time    0.0021: real time    0.0022
    --------------------------------------------
      LOOP:  cpu time   11.1575: real time   11.1799

 eigenvalue-minimisations  :  7000
 total energy-change (2. order) : 0.6025667E+02  (-0.2370636E+02)
 number of electron     528.0000016 magnetization 
 augmentation part      214.6698028 magnetization 

 Broyden mixing:
  rms(total) = 0.33757E+01    rms(broyden)= 0.33756E+01
  rms(prec ) = 0.34126E+01
  weight for this iteration     100.00

 eigenvalues of (default mixing * dielectric matrix)
  average eigenvalue GAMMA=   0.7300
  0.7300

 Free energy of the ion-electron system (eV)
  ---------------------------------------------------
  alpha Z        PSCENC =      2090.23889475
  Ewald energy   TEWEN  =    -41236.22526595
  -Hartree energ DENC   =    -17276.34992501
  -exchange      EXHF   =         0.00000000
  -V(xc)+E(xc)   XCENC  =      2076.11823085
  PAW double counting   =     55165.05216318   -59774.49211721
  entropy T*S    EENTRO =        -0.00000000
  eigenvalues    EBANDS =     -2806.96318251
  atomic energy  EATOM  =     61417.43592829
  Solvation  Ediel_sol  =         0.00000000
  ---------------------------------------------------
  free energy    TOTEN  =      -345.18527363 eV

  energy without entropy =     -345.18527363  energy(sigma->0) =     -345.18527363


--------------------------------------------------------------------------------------------------------




--------------------------------------- Iteration      1(   8)  ---------------------------------------


    POTLOK:  cpu time    0.0553: real time    0.0558
    SETDIJ:  cpu time    0.0078: real time    0.0078
     EDDAV:  cpu time    6.9702: real time    7.0522
       DOS:  cpu time    0.0007: real time    0.0007
    CHARGE:  cpu time    0.2161: real time    0.2163
    MIXING:  cpu time    0.0020: real time    0.0020
    --------------------------------------------
      LOOP:  cpu time    7.2521: real time    7.3348

 eigenvalue-minimisations  :  4120
 total energy-change (2. order) :-0.1383457E+01  (-0.2560055E+01)
 number of electron     528.0000016 magnetization 
 augmentation part      214.4823517 magnetization 

 Broyden mixing:
  rms(total) = 0.11242E+01    rms(broyden)= 0.11242E+01
  rms(prec ) = 0.11812E+01
  weight for this iteration     100.00

 eigenvalues of (default mixing * dielectric matrix)
  average eigenvalue GAMMA=   0.9513
  0.9513  0.9513

 Free energy of the ion-electron system (eV)
  ---------------------------------------------------
  alpha Z        PSCENC =      2090.23889475
  Ewald energy   TEWEN  =    -41236.22526595
  -Hartree energ DENC   =    -17247.14272659
  -exchange      EXHF   =         0.00000000
  -V(xc)+E(xc)   XCENC  =      2074.43464661
  PAW double counting   =     61500.34299581   -66133.16010093
  entropy T*S    EENTRO =        -0.00000000
  eigenvalues    EBANDS =     -2812.49310215
  atomic energy  EATOM  =     61417.43592829
  Solvation  Ediel_sol  =         0.00000000
  ---------------------------------------------------
  free energy    TOTEN  =      -346.56873016 eV

  energy without entropy =     -346.56873016  energy(sigma->0) =     -346.56873016


--------------------------------------------------------------------------------------------------------




--------------------------------------- Iteration      1(   9)  ---------------------------------------


    POTLOK:  cpu time    0.0541: real time    0.0542
    SETDIJ:  cpu time    0.0077: real time    0.0077
     EDDAV:  cpu time    9.0884: real time    9.1063
       DOS:  cpu time    0.0007: real time    0.0007
    CHARGE:  cpu time    0.2178: real time    0.2181
    MIXING:  cpu time    0.0019: real time    0.0019
    --------------------------------------------
      LOOP:  cpu time    9.3705: real time    9.3889

 eigenvalue-minimisations  :  5728
 total energy-change (2. order) : 0.3781451E+00  (-0.2369055E+00)
 number of electron     528.0000016 magnetization 
 augmentation part      214.6351709 magnetization 

 Broyden mixing:
  rms(total) = 0.59680E+00    rms(broyden)= 0.59680E+00
  rms(prec ) = 0.63311E+00
  weight for this iteration     100.00

 eigenvalues of (default mixing * dielectric matrix)
  average eigenvalue GAMMA=   1.3939
  1.0224  1.0224  2.1368

 Free energy of the ion-electron system (eV)
  ---------------------------------------------------
  alpha Z        PSCENC =      2090.23889475
  Ewald energy   TEWEN  =    -41236.22526595
  -Hartree energ DENC   =    -17221.38150123
  -exchange      EXHF   =         0.00000000
  -V(xc)+E(xc)   XCENC  =      2072.72776417
  PAW double counting   =     64196.56034291   -68852.15468612
  entropy T*S    EENTRO =        -0.00000000
  eigenvalues    EBANDS =     -2813.39206189
  atomic energy  EATOM  =     61417.43592829
  Solvation  Ediel_sol  =         0.00000000
  ---------------------------------------------------
  free energy    TOTEN  =      -346.19058507 eV

  energy without entropy =     -346.19058507  energy(sigma->0) =     -346.19058507


--------------------------------------------------------------------------------------------------------




--------------------------------------- Iteration      1(  10)  ---------------------------------------


    POTLOK:  cpu time    0.0546: real time    0.0548
    SETDIJ:  cpu time    0.0078: real time    0.0078
     EDDAV:  cpu time    8.5681: real time    8.5870
       DOS:  cpu time    0.0007: real time    0.0007
    CHARGE:  cpu time    0.2167: real time    0.2169
    MIXING:  cpu time    0.0022: real time    0.0022
    --------------------------------------------
      LOOP:  cpu time    8.8502: real time    8.8694

 eigenvalue-minimisations  :  5280
 total energy-change (2. order) : 0.1108942E+00  (-0.7384566E-01)
 number of electron     528.0000016 magnetization 
 augmentation part      214.4280157 magnetization 

 Broyden mixing:
  rms(total) = 0.12680E+00    rms(broyden)= 0.12680E+00
  rms(prec ) = 0.13729E+00
  weight for this iteration     100.00

 eigenvalues of (default mixing * dielectric matrix)
  average eigenvalue GAMMA=   1.3382
  2.4087  0.9359  0.9359  1.0723

 Free energy of the ion-electron system (eV)
  ---------------------------------------------------
  alpha Z        PSCENC =      2090.23889475
  Ewald energy   TEWEN  =    -41236.22526595
  -Hartree energ DENC   =    -17225.57194906
  -exchange      EXHF   =         0.00000000
  -V(xc)+E(xc)   XCENC  =      2073.99375212
  PAW double counting   =     66135.27479261   -70809.73852259
  entropy T*S    EENTRO =        -0.00000000
  eigenvalues    EBANDS =     -2791.48732106
  atomic energy  EATOM  =     61417.43592829
  Solvation  Ediel_sol  =         0.00000000
  ---------------------------------------------------
  free energy    TOTEN  =      -346.07969090 eV

  energy without entropy =     -346.07969090  energy(sigma->0) =     -346.07969090


--------------------------------------------------------------------------------------------------------




--------------------------------------- Iteration      1(  11)  ---------------------------------------


    POTLOK:  cpu time    0.0550: real time    0.0554
    SETDIJ:  cpu time    0.0077: real time    0.0077
     EDDAV:  cpu time    7.6660: real time    7.7156
       DOS:  cpu time    0.0007: real time    0.0007
    CHARGE:  cpu time    0.2167: real time    0.2169
    MIXING:  cpu time    0.0022: real time    0.0022
    --------------------------------------------
      LOOP:  cpu time    7.9484: real time    7.9985

 eigenvalue-minimisations  :  4632
 total energy-change (2. order) :-0.3504934E-02  (-0.2137110E-01)
 number of electron     528.0000016 magnetization 
 augmentation part      214.4403040 magnetization 

 Broyden mixing:
  rms(total) = 0.48168E-01    rms(broyden)= 0.48167E-01
  rms(prec ) = 0.51719E-01
  weight for this iteration     100.00

 eigenvalues of (default mixing * dielectric matrix)
  average eigenvalue GAMMA=   1.2947
  2.4525  1.2309  0.9436  0.9436  0.9027

 Free energy of the ion-electron system (eV)
  ---------------------------------------------------
  alpha Z        PSCENC =      2090.23889475
  Ewald energy   TEWEN  =    -41236.22526595
  -Hartree energ DENC   =    -17221.09700919
  -exchange      EXHF   =         0.00000000
  -V(xc)+E(xc)   XCENC  =      2073.62705019
  PAW double counting   =     66366.83464754   -71046.85685189
  entropy T*S    EENTRO =        -0.00000000
  eigenvalues    EBANDS =     -2790.04058957
  atomic energy  EATOM  =     61417.43592829
  Solvation  Ediel_sol  =         0.00000000
  ---------------------------------------------------
  free energy    TOTEN  =      -346.08319583 eV

  energy without entropy =     -346.08319583  energy(sigma->0) =     -346.08319583


--------------------------------------------------------------------------------------------------------




--------------------------------------- Iteration      1(  12)  ---------------------------------------


    POTLOK:  cpu time    0.0547: real time    0.0549
    SETDIJ:  cpu time    0.0075: real time    0.0075
     EDDAV:  cpu time    8.9141: real time    8.9325
       DOS:  cpu time    0.0007: real time    0.0007
    CHARGE:  cpu time    0.2127: real time    0.2130
    MIXING:  cpu time    0.0019: real time    0.0019
    --------------------------------------------
      LOOP:  cpu time    9.1917: real time    9.2106

 eigenvalue-minimisations  :  5624
 total energy-change (2. order) :-0.1211705E-01  (-0.1187091E-01)
 number of electron     528.0000016 magnetization 
 augmentation part      214.4814724 magnetization 

 Broyden mixing:
  rms(total) = 0.40505E-01    rms(broyden)= 0.40504E-01
  rms(prec ) = 0.42269E-01
  weight for this iteration     100.00

 eigenvalues of (default mixing * dielectric matrix)
  average eigenvalue GAMMA=   1.1712
  2.4398  1.2790  0.9423  0.9423  0.9562  0.4674

 Free energy of the ion-electron system (eV)
  ---------------------------------------------------
  alpha Z        PSCENC =      2090.23889475
  Ewald energy   TEWEN  =    -41236.22526595
  -Hartree energ DENC   =    -17218.89461203
  -exchange      EXHF   =         0.00000000
  -V(xc)+E(xc)   XCENC  =      2073.43768470
  PAW double counting   =     66416.18856488   -71097.25825525
  entropy T*S    EENTRO =        -0.00000000
  eigenvalues    EBANDS =     -2791.01825227
  atomic energy  EATOM  =     61417.43592829
  Solvation  Ediel_sol  =         0.00000000
  ---------------------------------------------------
  free energy    TOTEN  =      -346.09531288 eV

  energy without entropy =     -346.09531288  energy(sigma->0) =     -346.09531288


--------------------------------------------------------------------------------------------------------




--------------------------------------- Iteration      1(  13)  ---------------------------------------


    POTLOK:  cpu time    0.0545: real time    0.0549
    SETDIJ:  cpu time    0.0074: real time    0.0075
     EDDAV:  cpu time    7.3761: real time    7.3930
       DOS:  cpu time    0.0007: real time    0.0007
    CHARGE:  cpu time    0.2137: real time    0.2139
    MIXING:  cpu time    0.0022: real time    0.0022
    --------------------------------------------
      LOOP:  cpu time    7.6547: real time    7.6722

 eigenvalue-minimisations  :  4400
 total energy-change (2. order) :-0.2206278E-02  (-0.2519980E-02)
 number of electron     528.0000016 magnetization 
 augmentation part      214.4767026 magnetization 

 Broyden mixing:
  rms(total) = 0.34668E-01    rms(broyden)= 0.34668E-01
  rms(prec ) = 0.35705E-01
  weight for this iteration     100.00

 eigenvalues of (default mixing * dielectric matrix)
  average eigenvalue GAMMA=   1.2729
  2.4187  1.5099  1.2222  1.2222  0.9701  0.9701  0.5973

 Free energy of the ion-electron system (eV)
  ---------------------------------------------------
  alpha Z        PSCENC =      2090.23889475
  Ewald energy   TEWEN  =    -41236.22526595
  -Hartree energ DENC   =    -17219.56738152
  -exchange      EXHF   =         0.00000000
  -V(xc)+E(xc)   XCENC  =      2073.47535502
  PAW double counting   =     66403.62628731   -71084.81931392
  entropy T*S    EENTRO =        -0.00000000
  eigenvalues    EBANDS =     -2790.26202313
  atomic energy  EATOM  =     61417.43592829
  Solvation  Ediel_sol  =         0.00000000
  ---------------------------------------------------
  free energy    TOTEN  =      -346.09751916 eV

  energy without entropy =     -346.09751916  energy(sigma->0) =     -346.09751916


--------------------------------------------------------------------------------------------------------




--------------------------------------- Iteration      1(  14)  ---------------------------------------


    POTLOK:  cpu time    0.0541: real time    0.0543
    SETDIJ:  cpu time    0.0077: real time    0.0077
     EDDAV:  cpu time    9.7542: real time    9.7730
       DOS:  cpu time    0.0006: real time    0.0006
    CHARGE:  cpu time    0.2135: real time    0.2136
    MIXING:  cpu time    0.0020: real time    0.0020
    --------------------------------------------
      LOOP:  cpu time   10.0321: real time   10.0513

 eigenvalue-minimisations  :  6192
 total energy-change (2. order) :-0.9793265E-03  (-0.6758135E-03)
 number of electron     528.0000016 magnetization 
 augmentation part      214.4585374 magnetization 

 Broyden mixing:
  rms(total) = 0.24418E-01    rms(broyden)= 0.24418E-01
  rms(prec ) = 0.24870E-01
  weight for this iteration     100.00

 eigenvalues of (default mixing * dielectric matrix)
  average eigenvalue GAMMA=   1.3554
  2.7830  2.2936  1.2771  1.2771  0.9318  0.9318  0.8335  0.5156

 Free energy of the ion-electron system (eV)
  ---------------------------------------------------
  alpha Z        PSCENC =      2090.23889475
  Ewald energy   TEWEN  =    -41236.22526595
  -Hartree energ DENC   =    -17221.29710394
  -exchange      EXHF   =         0.00000000
  -V(xc)+E(xc)   XCENC  =      2073.56610596
  PAW double counting   =     66358.69223082   -71040.67859576
  entropy T*S    EENTRO =        -0.00000000
  eigenvalues    EBANDS =     -2787.83069266
  atomic energy  EATOM  =     61417.43592829
  Solvation  Ediel_sol  =         0.00000000
  ---------------------------------------------------
  free energy    TOTEN  =      -346.09849849 eV

  energy without entropy =     -346.09849849  energy(sigma->0) =     -346.09849849


--------------------------------------------------------------------------------------------------------




--------------------------------------- Iteration      1(  15)  ---------------------------------------


    POTLOK:  cpu time    0.0543: real time    0.0544
    SETDIJ:  cpu time    0.0076: real time    0.0076
     EDDAV:  cpu time    9.1893: real time    9.2402
       DOS:  cpu time    0.0007: real time    0.0007
    CHARGE:  cpu time    0.2143: real time    0.2146
    MIXING:  cpu time    0.0021: real time    0.0021
    --------------------------------------------
      LOOP:  cpu time    9.4682: real time    9.5197

 eigenvalue-minimisations  :  5808
 total energy-change (2. order) :-0.8635186E-03  (-0.5797789E-03)
 number of electron     528.0000016 magnetization 
 augmentation part      214.4620532 magnetization 

 Broyden mixing:
  rms(total) = 0.10710E-01    rms(broyden)= 0.10710E-01
  rms(prec ) = 0.11069E-01
  weight for this iteration     100.00

 eigenvalues of (default mixing * dielectric matrix)
  average eigenvalue GAMMA=   1.3485
  2.8805  2.3471  1.2303  1.2303  0.9368  0.9368  1.0111  1.0111  0.5527

 Free energy of the ion-electron system (eV)
  ---------------------------------------------------
  alpha Z        PSCENC =      2090.23889475
  Ewald energy   TEWEN  =    -41236.22526595
  -Hartree energ DENC   =    -17221.35533097
  -exchange      EXHF   =         0.00000000
  -V(xc)+E(xc)   XCENC  =      2073.54442507
  PAW double counting   =     66311.34657789   -70993.77261873
  entropy T*S    EENTRO =        -0.00000000
  eigenvalues    EBANDS =     -2787.31197235
  atomic energy  EATOM  =     61417.43592829
  Solvation  Ediel_sol  =         0.00000000
  ---------------------------------------------------
  free energy    TOTEN  =      -346.09936200 eV

  energy without entropy =     -346.09936200  energy(sigma->0) =     -346.09936200


--------------------------------------------------------------------------------------------------------




--------------------------------------- Iteration      1(  16)  ---------------------------------------


    POTLOK:  cpu time    0.0542: real time    0.0544
    SETDIJ:  cpu time    0.0076: real time    0.0076
     EDDAV:  cpu time    7.3964: real time    7.4111
       DOS:  cpu time    0.0007: real time    0.0007
    CHARGE:  cpu time    0.2153: real time    0.2155
    MIXING:  cpu time    0.0021: real time    0.0021
    --------------------------------------------
      LOOP:  cpu time    7.6763: real time    7.6914

 eigenvalue-minimisations  :  4464
 total energy-change (2. order) : 0.3542323E-04  (-0.1143375E-03)
 number of electron     528.0000016 magnetization 
 augmentation part      214.4635617 magnetization 

 Broyden mixing:
  rms(total) = 0.60286E-02    rms(broyden)= 0.60286E-02
  rms(prec ) = 0.61506E-02
  weight for this iteration     100.00

 eigenvalues of (default mixing * dielectric matrix)
  average eigenvalue GAMMA=   1.3617
  2.9553  2.2670  1.8104  1.1788  0.9586  0.9586  1.0186  1.0186  0.9103  0.5409

 Free energy of the ion-electron system (eV)
  ---------------------------------------------------
  alpha Z        PSCENC =      2090.23889475
  Ewald energy   TEWEN  =    -41236.22526595
  -Hartree energ DENC   =    -17221.35904633
  -exchange      EXHF   =         0.00000000
  -V(xc)+E(xc)   XCENC  =      2073.54385746
  PAW double counting   =     66294.21431475   -70976.35864117
  entropy T*S    EENTRO =        -0.00000000
  eigenvalues    EBANDS =     -2787.58936838
  atomic energy  EATOM  =     61417.43592829
  Solvation  Ediel_sol  =         0.00000000
  ---------------------------------------------------
  free energy    TOTEN  =      -346.09932658 eV

  energy without entropy =     -346.09932658  energy(sigma->0) =     -346.09932658


--------------------------------------------------------------------------------------------------------




--------------------------------------- Iteration      1(  17)  ---------------------------------------


    POTLOK:  cpu time    0.0541: real time    0.0543
    SETDIJ:  cpu time    0.0076: real time    0.0076
     EDDAV:  cpu time   10.3839: real time   10.4058
       DOS:  cpu time    0.0007: real time    0.0007
    CHARGE:  cpu time    0.2403: real time    0.2405
    MIXING:  cpu time    0.0024: real time    0.0024
    --------------------------------------------
      LOOP:  cpu time   10.6890: real time   10.7112

 eigenvalue-minimisations  :  6696
 total energy-change (2. order) : 0.4728630E-05  (-0.3122210E-04)
 number of electron     528.0000016 magnetization 
 augmentation part      214.4660512 magnetization 

 Broyden mixing:
  rms(total) = 0.47762E-02    rms(broyden)= 0.47762E-02
  rms(prec ) = 0.49140E-02
  weight for this iteration     100.00

 eigenvalues of (default mixing * dielectric matrix)
  average eigenvalue GAMMA=   1.3295
  2.9862  2.1828  2.1828  1.3176  0.9288  0.9288  0.9371  0.9371  0.8351  0.8351
  0.5527

 Free energy of the ion-electron system (eV)
  ---------------------------------------------------
  alpha Z        PSCENC =      2090.23889475
  Ewald energy   TEWEN  =    -41236.22526595
  -Hartree energ DENC   =    -17221.35440615
  -exchange      EXHF   =         0.00000000
  -V(xc)+E(xc)   XCENC  =      2073.53817435
  PAW double counting   =     66278.69521337   -70960.81952089
  entropy T*S    EENTRO =        -0.00000000
  eigenvalues    EBANDS =     -2787.60833962
  atomic energy  EATOM  =     61417.43592829
  Solvation  Ediel_sol  =         0.00000000
  ---------------------------------------------------
  free energy    TOTEN  =      -346.09932185 eV

  energy without entropy =     -346.09932185  energy(sigma->0) =     -346.09932185


--------------------------------------------------------------------------------------------------------




--------------------------------------- Iteration      1(  18)  ---------------------------------------


    POTLOK:  cpu time    0.0549: real time    0.0559
    SETDIJ:  cpu time    0.0077: real time    0.0077
     EDDAV:  cpu time    7.3014: real time    7.3362
       DOS:  cpu time    0.0008: real time    0.0008
    CHARGE:  cpu time    0.2145: real time    0.2147
    MIXING:  cpu time    0.0026: real time    0.0026
    --------------------------------------------
      LOOP:  cpu time    7.5818: real time    7.6179

 eigenvalue-minimisations  :  4360
 total energy-change (2. order) :-0.2417094E-04  (-0.3570225E-04)
 number of electron     528.0000016 magnetization 
 augmentation part      214.4667785 magnetization 

 Broyden mixing:
  rms(total) = 0.32798E-02    rms(broyden)= 0.32798E-02
  rms(prec ) = 0.34141E-02
  weight for this iteration     100.00

 eigenvalues of (default mixing * dielectric matrix)
  average eigenvalue GAMMA=   1.3268
  3.0368  2.3192  2.3192  1.0089  1.0089  1.1108  1.1108  0.9257  0.9257  0.8075
  0.8075  0.5413

 Free energy of the ion-electron system (eV)
  ---------------------------------------------------
  alpha Z        PSCENC =      2090.23889475
  Ewald energy   TEWEN  =    -41236.22526595
  -Hartree energ DENC   =    -17221.39475877
  -exchange      EXHF   =         0.00000000
  -V(xc)+E(xc)   XCENC  =      2073.54006871
  PAW double counting   =     66273.95547461   -70956.08950389
  entropy T*S    EENTRO =        -0.00000000
  eigenvalues    EBANDS =     -2787.56018376
  atomic energy  EATOM  =     61417.43592829
  Solvation  Ediel_sol  =         0.00000000
  ---------------------------------------------------
  free energy    TOTEN  =      -346.09934602 eV

  energy without entropy =     -346.09934602  energy(sigma->0) =     -346.09934602


--------------------------------------------------------------------------------------------------------




--------------------------------------- Iteration      1(  19)  ---------------------------------------


    POTLOK:  cpu time    0.0548: real time    0.0549
    SETDIJ:  cpu time    0.0076: real time    0.0076
     EDDAV:  cpu time    9.0932: real time    9.1105
       DOS:  cpu time    0.0008: real time    0.0008
    CHARGE:  cpu time    0.2141: real time    0.2143
    MIXING:  cpu time    0.0026: real time    0.0026
    --------------------------------------------
      LOOP:  cpu time    9.3731: real time    9.3907

 eigenvalue-minimisations  :  5744
 total energy-change (2. order) : 0.1013980E-04  (-0.3740635E-05)
 number of electron     528.0000016 magnetization 
 augmentation part      214.4662411 magnetization 

 Broyden mixing:
  rms(total) = 0.17396E-02    rms(broyden)= 0.17396E-02
  rms(prec ) = 0.18190E-02
  weight for this iteration     100.00

 eigenvalues of (default mixing * dielectric matrix)
  average eigenvalue GAMMA=   1.3479
  3.1220  2.4848  2.4848  1.1854  1.1854  1.0886  1.0886  0.9645  0.9645  0.8799
  0.5462  0.7640  0.7640

 Free energy of the ion-electron system (eV)
  ---------------------------------------------------
  alpha Z        PSCENC =      2090.23889475
  Ewald energy   TEWEN  =    -41236.22526595
  -Hartree energ DENC   =    -17221.51124073
  -exchange      EXHF   =         0.00000000
  -V(xc)+E(xc)   XCENC  =      2073.54633426
  PAW double counting   =     66269.22344635   -70951.38873070
  entropy T*S    EENTRO =        -0.00000000
  eigenvalues    EBANDS =     -2787.41870214
  atomic energy  EATOM  =     61417.43592829
  Solvation  Ediel_sol  =         0.00000000
  ---------------------------------------------------
  free energy    TOTEN  =      -346.09933588 eV

  energy without entropy =     -346.09933588  energy(sigma->0) =     -346.09933588


--------------------------------------------------------------------------------------------------------




--------------------------------------- Iteration      1(  20)  ---------------------------------------


    POTLOK:  cpu time    0.0542: real time    0.0543
    SETDIJ:  cpu time    0.0075: real time    0.0075
     EDDAV:  cpu time    9.8728: real time    9.8944
       DOS:  cpu time    0.0007: real time    0.0007
    CHARGE:  cpu time    0.2156: real time    0.2158
    MIXING:  cpu time    0.0028: real time    0.0028
    --------------------------------------------
      LOOP:  cpu time   10.1535: real time   10.1755

 eigenvalue-minimisations  :  6296
 total energy-change (2. order) : 0.5843431E-05  (-0.1933470E-05)
 number of electron     528.0000016 magnetization 
 augmentation part      214.4650953 magnetization 

 Broyden mixing:
  rms(total) = 0.77372E-03    rms(broyden)= 0.77371E-03
  rms(prec ) = 0.83104E-03
  weight for this iteration     100.00

 eigenvalues of (default mixing * dielectric matrix)
  average eigenvalue GAMMA=   1.3436
  3.4230  2.5216  1.8637  1.8637  1.2246  1.0304  1.0304  0.9683  0.9683  0.8811
  0.8811  0.5439  0.8047  0.8047

 Free energy of the ion-electron system (eV)
  ---------------------------------------------------
  alpha Z        PSCENC =      2090.23889475
  Ewald energy   TEWEN  =    -41236.22526595
  -Hartree energ DENC   =    -17221.63218583
  -exchange      EXHF   =         0.00000000
  -V(xc)+E(xc)   XCENC  =      2073.55343685
  PAW double counting   =     66265.69513618   -70947.87220893
  entropy T*S    EENTRO =        -0.00000000
  eigenvalues    EBANDS =     -2787.29306540
  atomic energy  EATOM  =     61417.43592829
  Solvation  Ediel_sol  =         0.00000000
  ---------------------------------------------------
  free energy    TOTEN  =      -346.09933004 eV

  energy without entropy =     -346.09933004  energy(sigma->0) =     -346.09933004


--------------------------------------------------------------------------------------------------------




--------------------------------------- Iteration      1(  21)  ---------------------------------------


    POTLOK:  cpu time    0.0542: real time    0.0544
    SETDIJ:  cpu time    0.0075: real time    0.0075
     EDDAV:  cpu time    5.7798: real time    5.7907
       DOS:  cpu time    0.0007: real time    0.0007
    CHARGE:  cpu time    0.2145: real time    0.2148
    MIXING:  cpu time    0.0026: real time    0.0026
    --------------------------------------------
      LOOP:  cpu time    6.0593: real time    6.0707

 eigenvalue-minimisations  :  3192
 total energy-change (2. order) : 0.1998909E-05  (-0.5981903E-06)
 number of electron     528.0000016 magnetization 
 augmentation part      214.4650612 magnetization 

 Broyden mixing:
  rms(total) = 0.35549E-03    rms(broyden)= 0.35549E-03
  rms(prec ) = 0.38290E-03
  weight for this iteration     100.00

 eigenvalues of (default mixing * dielectric matrix)
  average eigenvalue GAMMA=   1.3524
  3.0896  2.5331  2.1984  2.1984  1.0828  1.0828  1.0824  1.0824  0.9222  0.9222
  0.9916  0.9916  0.7818  0.7818  0.5447

 Free energy of the ion-electron system (eV)
  ---------------------------------------------------
  alpha Z        PSCENC =      2090.23889475
  Ewald energy   TEWEN  =    -41236.22526595
  -Hartree energ DENC   =    -17221.63368141
  -exchange      EXHF   =         0.00000000
  -V(xc)+E(xc)   XCENC  =      2073.55283586
  PAW double counting   =     66264.63559681   -70946.81965528
  entropy T*S    EENTRO =        -0.00000000
  eigenvalues    EBANDS =     -2787.28398111
  atomic energy  EATOM  =     61417.43592829
  Solvation  Ediel_sol  =         0.00000000
  ---------------------------------------------------
  free energy    TOTEN  =      -346.09932804 eV

  energy without entropy =     -346.09932804  energy(sigma->0) =     -346.09932804


--------------------------------------------------------------------------------------------------------




--------------------------------------- Iteration      1(  22)  ---------------------------------------


    POTLOK:  cpu time    0.0543: real time    0.0544
    SETDIJ:  cpu time    0.0074: real time    0.0074
     EDDAV:  cpu time    7.8814: real time    7.9160
       DOS:  cpu time    0.0007: real time    0.0007
    CHARGE:  cpu time    0.2155: real time    0.2160
    MIXING:  cpu time    0.0028: real time    0.0028
    --------------------------------------------
      LOOP:  cpu time    8.1620: real time    8.1973

 eigenvalue-minimisations  :  4768
 total energy-change (2. order) :-0.9161595E-06  (-0.1597457E-05)
 number of electron     528.0000016 magnetization 
 augmentation part      214.4650792 magnetization 

 Broyden mixing:
  rms(total) = 0.32294E-03    rms(broyden)= 0.32294E-03
  rms(prec ) = 0.32747E-03
  weight for this iteration     100.00

 eigenvalues of (default mixing * dielectric matrix)
  average eigenvalue GAMMA=   1.2915
  3.1871  2.5869  2.1875  2.1875  1.0829  1.0829  0.9201  0.9201  1.0660  1.0660
  1.0040  1.0040  0.5447  0.7810  0.7810  0.2625

 Free energy of the ion-electron system (eV)
  ---------------------------------------------------
  alpha Z        PSCENC =      2090.23889475
  Ewald energy   TEWEN  =    -41236.22526595
  -Hartree energ DENC   =    -17221.61118697
  -exchange      EXHF   =         0.00000000
  -V(xc)+E(xc)   XCENC  =      2073.55158346
  PAW double counting   =     66265.18378990   -70947.35756247
  entropy T*S    EENTRO =        -0.00000000
  eigenvalues    EBANDS =     -2787.31550996
  atomic energy  EATOM  =     61417.43592829
  Solvation  Ediel_sol  =         0.00000000
  ---------------------------------------------------
  free energy    TOTEN  =      -346.09932896 eV

  energy without entropy =     -346.09932896  energy(sigma->0) =     -346.09932896


--------------------------------------------------------------------------------------------------------




--------------------------------------- Iteration      1(  23)  ---------------------------------------


    POTLOK:  cpu time    0.0539: real time    0.0541
    SETDIJ:  cpu time    0.0074: real time    0.0074
     EDDAV:  cpu time    5.6018: real time    5.6129
       DOS:  cpu time    0.0006: real time    0.0006
    --------------------------------------------
      LOOP:  cpu time    5.6637: real time    5.6749

 eigenvalue-minimisations  :  3024
 total energy-change (2. order) :-0.3842724E-06  (-0.5260218E-06)
 number of electron     528.0000016 magnetization 
 augmentation part      214.4650792 magnetization 

[...]
  0.002  -0.000   0.000   1.997   0.000   0.000   0.000   0.000  -0.001   0.000  -0.023   0.020   0.033  -0.046   0.036  -0.019
  0.000   0.002   0.000   0.000   1.998   0.000   0.001   0.000   0.000  -0.000  -0.005   0.005   0.060   0.016   0.000  -0.033
  0.000   0.000   0.000   0.000   0.000   0.062  -0.001   0.005  -0.048  -0.003  -0.031   0.019   0.019   0.067  -0.051  -0.007
  0.000  -0.002  -0.000   0.000   0.001  -0.001   0.086  -0.001   0.002  -0.044  -0.034   0.020  -0.023   0.019   0.071   0.006
  0.000  -0.000  -0.002   0.000   0.000   0.005  -0.001   0.027  -0.005  -0.003  -0.041   0.026   0.053   0.005  -0.065  -0.015
  0.000   0.000   0.000  -0.001   0.000  -0.048   0.002  -0.005   0.081  -0.001  -0.013   0.007   0.070  -0.083   0.038  -0.021
  0.000   0.001   0.000   0.000  -0.000  -0.003  -0.044  -0.003  -0.001   0.057   0.006  -0.006   0.020   0.032   0.021  -0.005
 -0.024  -0.029  -0.019  -0.023  -0.005  -0.031  -0.034  -0.041  -0.013   0.006   9.975  -5.571  -0.325   0.087  -0.032   0.122
  0.022   0.025   0.016   0.020   0.005   0.019   0.020   0.026   0.007  -0.006  -5.571   3.211   0.180  -0.047   0.012  -0.070
 -0.006   0.002   0.054   0.033   0.060   0.019  -0.023   0.053   0.070   0.020  -0.325   0.180   3.179  -0.124  -0.111  -0.918
  0.033  -0.040   0.019  -0.046   0.016   0.067   0.019   0.005  -0.083   0.032   0.087  -0.047  -0.124   2.965  -0.060   0.041
 -0.073   0.033  -0.023   0.036   0.000  -0.051   0.071  -0.065   0.038   0.021  -0.032   0.012  -0.111  -0.060   3.205   0.038
  0.002  -0.001  -0.031  -0.019  -0.033  -0.007   0.006  -0.015  -0.021  -0.005   0.122  -0.070  -0.918   0.041   0.038   0.275
 -0.019   0.020  -0.011   0.026  -0.010  -0.020  -0.007  -0.001   0.024  -0.009  -0.033   0.019   0.041  -0.844   0.019  -0.014
  0.040  -0.019   0.014  -0.020  -0.001   0.014  -0.021   0.020  -0.010  -0.006   0.009  -0.003   0.038   0.019  -0.930  -0.013


------------------------ aborting loop because EDIFF is reached ----------------------------------------


    CHARGE:  cpu time    0.2092: real time    0.2094
    FORLOC:  cpu time    0.0197: real time    0.0199
    FORNL :  cpu time    1.6049: real time    1.6081
    STRESS:  cpu time    4.8682: real time    4.8766
    FORCOR:  cpu time    0.0713: real time    0.0715
    FORHAR:  cpu time    0.0306: real time    0.0307
    MIXING:  cpu time    0.0030: real time    0.0030
    OFIELD:  cpu time    0.0001: real time    0.0001

  FORCE on cell =-STRESS in cart. coord.  units (eV):
  Direction    XX          YY          ZZ          XY          YZ          ZX
  --------------------------------------------------------------------------------------
  Alpha Z  2090.23889  2090.23889  2090.23889
  Ewald  -13192.23046-12048.80423-15995.41877   -59.26677    88.38993   236.32712
  Hartree  6100.76697  6867.03438  4253.79801   -38.46121    77.10532    93.36046
  E(xc)   -2853.47539 -2852.74738 -2855.73561    -0.07889     0.16312     0.46293
  Local   -1903.63694 -3785.21489  2695.28806    96.73383  -171.72357  -321.45630
  n-local  -450.75049  -439.94599  -473.61201    -0.42079     1.73487     5.97980
  augment  3573.68457  3568.88673  3581.72951    -0.21213     1.12319    -1.50956
  Kinetic  6634.41398  6598.60028  6704.47036     1.34031     3.44522   -11.53404
  Fock        0.00000     0.00000     0.00000     0.00000     0.00000     0.00000
  -------------------------------------------------------------------------------------
  Total      -0.98887    -1.95221     0.75845    -0.36565     0.23808     1.63040
  in kB      -2.09487    -4.13567     1.60674    -0.77461     0.50437     3.45394
  external pressure =       -1.54 kB  Pullay stress =        0.00 kB


 VOLUME and BASIS-vectors are now :
 -----------------------------------------------------------------------------
  energy-cutoff  :      850.00
  volume of cell :      756.29
      direct lattice vectors                 reciprocal lattice vectors
     9.206490000  0.000000000  0.000000000     0.108619029 -0.000528195 -0.025359754
     0.026576000  5.465135000  0.000000000     0.000000000  0.182978097  0.001504871
     3.508814000 -0.123622000 15.031268000     0.000000000  0.000000000  0.066527987

  length of vectors
     9.206490000  5.465199617 15.435869777     0.111541425  0.182984285  0.066527987


 FORCES acting on ions
    electron-ion (+dipol)            ewald-force                    non-local-force                 convergence-correction
 -----------------------------------------------------------------------------------------------
   0.136E+03 -.173E+02 -.112E+03   -.136E+03 0.155E+02 0.113E+03   0.229E+00 0.191E+01 -.563E+00   -.197E-03 0.725E-04 -.512E-03
   -.168E+03 0.830E+01 -.151E+03   0.167E+03 -.970E+01 0.152E+03   0.176E+01 0.137E+01 -.179E+01   0.416E-03 0.492E-03 -.832E-03
   -.111E+01 -.371E+02 0.311E+02   0.210E+01 0.369E+02 -.300E+02   -.933E+00 0.100E+00 -.980E+00   -.133E-03 -.252E-03 0.283E-03
   0.596E+02 -.603E+01 0.173E+02   -.626E+02 0.613E+01 -.174E+02   0.293E+01 -.118E+00 0.156E+00   -.706E-04 -.125E-04 -.576E-06
   0.187E+03 -.708E+01 0.175E+03   -.185E+03 0.860E+01 -.176E+03   -.204E+01 -.144E+01 0.138E+01   -.242E-03 -.351E-03 0.296E-03
   -.173E+03 0.247E+02 0.458E+02   0.173E+03 -.222E+02 -.456E+02   -.129E-01 -.263E+01 -.133E+00   0.555E-04 0.826E-04 -.874E-04
   -.643E+02 0.327E+02 -.473E+02   0.630E+02 -.313E+02 0.488E+02   0.148E+01 -.135E+01 -.150E+01   0.276E-03 -.245E-03 -.123E-03
   0.840E+02 -.152E+02 0.638E+02   -.829E+02 0.149E+02 -.655E+02   -.117E+01 0.362E+00 0.180E+01   0.180E-03 -.532E-03 0.451E-03
   -.118E+03 -.138E+02 -.305E+01   0.118E+03 0.132E+02 0.180E+01   0.174E-01 0.598E+00 0.126E+01   0.578E-03 0.126E-03 -.440E-04
   0.985E+02 0.139E+02 0.106E+02   -.992E+02 -.131E+02 -.120E+02   0.754E+00 -.817E+00 0.143E+01   -.554E-03 -.111E-03 0.682E-04
   -.161E+03 0.670E+02 -.121E+02   0.165E+03 -.688E+02 0.105E+02   -.361E+01 0.187E+01 0.143E+01   -.173E-03 0.390E-04 0.105E-03
   0.102E+03 0.773E+01 0.803E+02   -.104E+03 -.120E+02 -.827E+02   0.313E+01 0.423E+01 0.254E+01   0.601E-04 0.206E-03 0.229E-03
   0.416E+02 0.330E+02 0.726E+02   -.416E+02 -.321E+02 -.751E+02   0.156E-02 -.836E+00 0.245E+01   -.113E-03 -.246E-03 0.617E-03
   -.468E+02 -.362E+02 0.314E+02   0.467E+02 0.356E+02 -.278E+02   0.216E+00 0.466E+00 -.352E+01   -.293E-03 -.100E-04 0.317E-03
   0.221E+02 0.278E+02 -.169E+01   -.161E+02 -.260E+02 0.837E+00   -.592E+01 -.186E+01 0.885E+00   0.175E-03 0.213E-03 -.546E-04
   -.785E+02 0.695E+01 0.209E+02   0.792E+02 -.865E+01 -.219E+02   -.732E+00 0.175E+01 0.821E+00   -.148E-03 -.138E-03 -.311E-04
   0.200E+02 0.339E+02 -.964E+01   -.202E+02 -.345E+02 0.818E+01   0.155E+00 0.700E+00 0.143E+01   0.144E-03 -.252E-04 -.404E-03
   0.485E+01 -.407E+02 -.916E+02   -.567E+01 0.409E+02 0.935E+02   0.801E+00 -.337E+00 -.189E+01   -.237E-04 -.141E-03 -.140E-03
   -.645E+02 -.260E+02 -.138E+03   0.690E+02 0.300E+02 0.141E+03   -.463E+01 -.404E+01 -.327E+01   0.490E-04 -.150E-03 -.998E-03
   0.757E+02 -.851E+02 0.626E+02   -.782E+02 0.861E+02 -.654E+02   0.240E+01 -.892E+00 0.272E+01   0.531E-04 0.345E-03 -.817E-04
   0.124E+03 0.417E+02 -.166E+03   -.120E+03 -.417E+02 0.167E+03   -.407E+01 0.119E-01 -.429E+00   -.585E-03 0.114E-03 -.555E-03
   0.229E+02 0.897E+01 -.882E+02   -.244E+02 -.743E+01 0.916E+02   0.143E+01 -.157E+01 -.334E+01   -.281E-03 -.102E-03 0.709E-04
   -.524E+01 0.378E+02 0.121E+03   0.614E+01 -.383E+02 -.125E+03   -.873E+00 0.570E+00 0.382E+01   0.821E-04 0.151E-03 0.238E-03
   -.569E+02 -.385E+01 0.166E+02   0.533E+02 0.335E+01 -.191E+02   0.377E+01 0.518E+00 0.267E+01   0.517E-06 0.416E-03 0.184E-03
   0.673E+02 -.397E+02 -.186E+03   -.694E+02 0.429E+02 0.185E+03   0.199E+01 -.307E+01 0.125E+01   -.856E-04 -.414E-03 -.387E-05
   0.118E+03 0.307E+02 -.497E+00   -.125E+03 -.318E+02 -.263E+01   0.726E+01 0.963E+00 0.311E+01   0.366E-03 0.349E-03 0.424E-04
   -.191E+02 0.928E+02 0.281E+01   0.240E+02 -.986E+02 -.227E+01   -.496E+01 0.591E+01 -.476E+00   -.878E-04 -.245E-03 0.269E-03
   0.569E+02 0.292E+01 0.490E+02   -.569E+02 -.572E+01 -.446E+02   0.120E+00 0.275E+01 -.441E+01   -.113E-03 0.520E-04 -.124E-03
   -.920E+02 0.362E+02 0.809E+02   0.103E+03 -.369E+02 -.915E+02   -.106E+02 0.702E+00 0.104E+02   -.207E-03 0.356E-03 -.324E-03
   -.685E+02 0.501E+02 -.162E+03   0.638E+02 -.556E+02 0.165E+03   0.461E+01 0.547E+01 -.340E+01   0.135E-03 -.252E-03 0.900E-04
   -.175E+01 0.244E+02 0.572E+02   0.300E+01 -.226E+02 -.547E+02   -.128E+01 -.185E+01 -.252E+01   0.878E-04 -.299E-03 -.451E-03
   0.526E+02 -.987E+01 -.536E+01   -.593E+02 0.757E+01 0.694E+01   0.682E+01 0.233E+01 -.156E+01   -.315E-03 0.135E-03 0.121E-03
   -.634E+02 -.537E+01 -.348E+03   0.650E+02 0.575E+01 0.367E+03   -.168E+01 -.377E+00 -.185E+02   -.349E-03 0.331E-03 -.873E-04
   0.173E+02 -.109E+03 0.868E+01   -.173E+02 0.120E+03 -.107E+02   -.205E+00 -.109E+02 0.202E+01   0.567E-04 -.552E-03 0.496E-04
   -.433E+02 -.613E+02 0.161E+03   0.350E+02 0.688E+02 -.169E+03   0.829E+01 -.748E+01 0.742E+01   0.286E-03 0.665E-04 -.229E-03
   -.587E+02 -.688E+02 0.953E+02   0.681E+02 0.757E+02 -.102E+03   -.936E+01 -.688E+01 0.662E+01   0.302E-04 0.210E-03 0.138E-03
   0.267E+02 -.159E+02 -.843E+02   -.241E+02 0.151E+02 0.812E+02   -.265E+01 0.726E+00 0.314E+01   -.387E-03 -.338E-03 0.392E-03
   0.595E+02 -.544E+02 0.894E+02   -.666E+02 0.580E+02 -.918E+02   0.707E+01 -.370E+01 0.239E+01   0.231E-03 0.326E-03 0.802E-04
   0.676E+02 0.495E+02 -.286E+02   -.677E+02 -.521E+02 0.352E+02   0.893E-01 0.251E+01 -.662E+01   -.168E-03 0.229E-03 -.338E-03
   0.665E+02 0.336E+02 -.933E+02   -.728E+02 -.366E+02 0.972E+02   0.624E+01 0.313E+01 -.377E+01   -.215E-03 0.522E-05 0.321E-04
   0.139E+02 0.832E+02 -.254E+02   -.605E+01 -.917E+02 0.285E+02   -.782E+01 0.850E+01 -.326E+01   -.181E-03 0.423E-03 0.181E-03
   -.482E+01 0.535E+02 -.494E+02   -.674E+00 -.558E+02 0.485E+02   0.536E+01 0.216E+01 0.917E+00   0.138E-03 -.169E-03 0.352E-03
   -.698E+02 0.289E+01 0.656E+01   0.720E+02 -.137E+01 -.114E+01   -.219E+01 -.151E+01 -.532E+01   -.966E-04 -.253E-03 -.379E-03
   -.427E+02 0.532E+02 -.119E+03   0.486E+02 -.567E+02 0.124E+03   -.599E+01 0.359E+01 -.478E+01   0.257E-04 -.301E-04 0.465E-04
   -.603E+02 -.463E+02 0.108E+03   0.680E+02 0.510E+02 -.110E+03   -.776E+01 -.471E+01 0.231E+01   0.278E-03 -.360E-03 0.269E-04
   -.526E+02 -.138E+02 -.280E+02   0.510E+02 0.125E+02 0.234E+02   0.168E+01 0.127E+01 0.464E+01   -.488E-04 0.305E-03 -.141E-04
   -.681E+01 -.763E+02 0.445E+02   -.155E+01 0.834E+02 -.497E+02   0.833E+01 -.700E+01 0.525E+01   0.222E-03 -.314E-04 -.445E-03
   0.310E+02 -.761E+02 0.113E+02   -.267E+02 0.823E+02 -.127E+02   -.429E+01 -.616E+01 0.152E+01   0.170E-03 -.216E-03 0.319E-04
   0.483E+02 -.367E+02 0.485E+02   -.535E+02 0.394E+02 -.514E+02   0.518E+01 -.285E+01 0.294E+01   0.679E-04 -.406E-04 0.716E-04
   0.648E+02 0.610E+01 -.442E+02   -.667E+02 -.394E+01 0.406E+02   0.200E+01 -.215E+01 0.363E+01   -.354E-03 -.146E-03 0.284E-03
   -.609E+02 0.123E+03 0.166E+02   0.620E+02 -.135E+03 -.164E+02   -.905E+00 0.121E+02 -.260E+00   -.315E-04 -.808E-04 0.572E-04
   0.948E+02 0.185E+02 0.313E+03   -.953E+02 -.194E+02 -.331E+03   0.679E+00 0.926E+00 0.178E+02   0.779E-06 0.411E-03 -.224E-03
   0.240E+02 0.838E+02 -.104E+03   -.330E+02 -.885E+02 0.109E+03   0.897E+01 0.461E+01 -.549E+01   0.467E-03 -.122E-03 0.152E-03
   -.739E+02 0.609E+02 -.778E+02   0.841E+02 -.677E+02 0.836E+02   -.102E+02 0.672E+01 -.573E+01   -.231E-03 0.147E-04 0.201E-03
   -.985E+02 -.418E+02 0.172E+02   0.102E+03 0.446E+02 -.134E+02   -.334E+01 -.264E+01 -.385E+01   0.202E-03 0.519E-04 -.141E-05
   -.689E+02 0.513E+02 0.154E+03   0.726E+02 -.551E+02 -.153E+03   -.367E+01 0.380E+01 -.103E+01   -.171E-03 -.466E-03 -.181E-03
   0.217E+02 -.607E+02 -.444E+02   -.225E+02 0.621E+02 0.396E+02   0.851E+00 -.142E+01 0.474E+01   0.247E-04 0.239E-03 0.218E-03
   -.710E+02 -.458E+02 0.626E+02   0.763E+02 0.491E+02 -.673E+02   -.533E+01 -.346E+01 0.475E+01   -.532E-04 0.703E-04 -.245E-04
   0.967E+02 -.547E+02 0.150E+03   -.928E+02 0.600E+02 -.153E+03   -.378E+01 -.529E+01 0.300E+01   -.556E-05 -.224E-03 0.135E-03
   0.180E+00 -.871E+02 -.207E+02   -.510E+01 0.916E+02 0.282E+02   0.506E+01 -.450E+01 -.757E+01   -.759E-04 0.332E-03 -.441E-03
 -----------------------------------------------------------------------------------------------
   0.103E+02 0.918E+01 -.167E+02   -.208E-12 -.185E-12 0.870E-12   -.103E+02 -.918E+01 0.167E+02   -.113E-02 -.391E-03 -.130E-02
 
 
 POSITION                                       TOTAL-FORCE (eV/Angst)
 -----------------------------------------------------------------------------------
      0.68081      0.15903      2.29293        -0.113346      0.113749     -0.015979
      5.70645      2.95320      2.14012        -0.047783     -0.038713     -0.027324
      5.66168      1.12456     10.34814         0.057138     -0.136785      0.097034
     10.47914      3.80281     12.22406        -0.000863     -0.013945     -0.005944
      4.28767      1.82580      7.24076         0.047545      0.079204      0.125229
      9.27835      4.60367      7.37565         0.102914     -0.086676      0.007454
      3.25105      4.41319      5.03547         0.165534      0.017452     -0.012050
      6.65681      0.21909      4.44336        -0.159138      0.088926      0.044519
      4.62317      3.80823     12.38187         0.073135      0.025457      0.001797
      8.71037      1.06953     12.26563        -0.010534     -0.031329      0.030110
     10.45281      1.63576      5.58524         0.136969     -0.009254     -0.200318
      5.91840      4.51915      7.38282         0.183359      0.013053      0.145956
     10.56186      1.83173      9.26969        -0.035713      0.069335     -0.062070
      7.54929      3.83001     10.33598         0.105929     -0.077831      0.065808
      2.90651      1.07445     12.35769         0.023797     -0.069961      0.030328
      7.55173      3.75862     14.12972        -0.091721      0.038121     -0.101835
      5.80335      1.00300     14.20617        -0.094200      0.064861     -0.032531
      8.68587      2.94932      0.33216        -0.027388     -0.094487      0.038515
      4.05439      0.29720      2.06373        -0.160457     -0.056967     -0.098901
      8.56615      2.97983      4.09982        -0.097341      0.131059     -0.048188
      2.55278      2.98534      1.97282        -0.115019     -0.047726      0.008660
      7.00180      0.26256      0.27700        -0.052220     -0.023926      0.057667
      3.04754      4.56511      9.28106         0.026783      0.038261     -0.012399
      7.50167      1.86762      7.34447         0.099749      0.025911      0.112681
      2.54839      4.68239      3.08147        -0.087284      0.060737      0.017151
      7.02963      2.10510      3.60423        -0.057532     -0.077151     -0.023219
      7.43743      2.05700     10.87457        -0.012417      0.050005      0.055140
     10.53251      1.86889     11.17554         0.063857     -0.047670      0.021498
      0.88090      1.91028      3.70017        -0.008530      0.075258     -0.142169
      5.23106      4.74058      3.30906        -0.091543     -0.026084      0.134931
      2.95250      4.79475     11.19693        -0.029457     -0.025829      0.043287
      5.96634      4.61368     10.92295         0.077091      0.031103      0.022797
      3.89225      2.02257      2.96681        -0.060015      0.005151      0.124617
      8.46944      4.73854      3.61932        -0.159362      0.014751      0.026377
      4.13605      2.06487     11.26361        -0.033366      0.001553     -0.118897
      8.96249      4.77162     11.05126         0.087332      0.060085      0.073796
      5.99431      0.85621      8.33508        -0.069857     -0.041949      0.033112
     10.69048      3.65178      8.76992        -0.015054     -0.041649     -0.077801
      2.34217      1.16137      1.06188        -0.044448     -0.115245     -0.030589
      7.17198      3.93682      0.83533        -0.067509      0.036998      0.065451
      4.47075      3.70816      8.47371         0.000418     -0.001024     -0.141176
      9.15862      1.14086      8.24907        -0.138269     -0.131278      0.043610
      3.99360      3.98416      0.96478         0.024007      0.002052      0.101696
      8.51630      1.17231      0.92417        -0.066854      0.050686      0.028558
      2.93161      0.91024      8.74421        -0.143057     -0.006790     -0.175591
      7.57023      3.67739      8.43621         0.074476      0.047198      0.028654
      5.51412      1.08123      0.99536        -0.030095      0.019100      0.094004
      0.92538      3.71130      1.20839         0.033476      0.084458      0.055148
      6.01354      2.78838     13.66736        -0.012420     -0.074648      0.021128
     10.55556      0.21986     13.39501         0.047209      0.010484     -0.021586
      1.48801      5.31919      5.94463         0.163233      0.185848     -0.029121
      6.04925      2.82859      6.43550         0.107312      0.011263     -0.074384
      4.32370      0.19544     13.43821        -0.055200     -0.090214     -0.064029
      8.97065      2.87356     13.40051         0.011787     -0.061144      0.073417
      2.76742      2.59844      5.98136         0.241063      0.131470     -0.089419
      7.47191      0.09815      6.37711         0.055246     -0.034103     -0.047553
     12.10161      2.81024     13.47370        -0.025111     -0.002643     -0.042883
      7.30368      0.07213     13.57883        -0.030654     -0.097641      0.013753
      4.72081      0.00005      6.04628         0.092729      0.012893     -0.081817
      8.91351      2.73382      6.01798         0.141665     -0.033820     -0.066110
 -----------------------------------------------------------------------------------
    total drift:                                0.022311      0.000580      0.013186


--------------------------------------------------------------------------------------------------------



  FREE ENERGIE OF THE ION-ELECTRON SYSTEM (eV)
  ---------------------------------------------------
  free  energy   TOTEN  =      -346.09932934 eV

  energy  without entropy=     -346.09932934  energy(sigma->0) =     -346.09932934
 


--------------------------------------------------------------------------------------------------------


    POTLOK:  cpu time    0.0618: real time    0.0619


--------------------------------------------------------------------------------------------------------


 stress matrix after NEB project (eV)
     -0.98887     -0.36565      1.63040
     -0.36565     -1.95221      0.23808
      1.63040      0.23808      0.75845
  FORCES: max atom, RMS     0.288776    0.136710
  FORCE total and by dimension    1.058952    0.241063
  Stress total and by dimension    3.325866    1.952206
     LOOP+:  cpu time  199.3837: real time  200.0290
    4ORBIT:  cpu time    0.0000: real time    0.0000

 total amount of memory used by VASP MPI-rank0    76889. kBytes
=======================================================================

   base      :      30000. kBytes
   nonlr-proj:      13358. kBytes
   fftplans  :       4701. kBytes
   grid      :       8201. kBytes
   one-center:         62. kBytes
   wavefun   :      20567. kBytes
 
  
  
 General timing and accounting informations for this job:
 ========================================================
  
                  Total CPU time used (sec):      204.702
                            User time (sec):      204.304
                          System time (sec):        0.397
                         Elapsed time (sec):      206.178
  
                   Maximum memory used (kb):      129220.
                   Average memory used (kb):           0.
  
                          Minor page faults:        56949
                          Major page faults:            0
                 Voluntary context switches:         4796
